ch4                                                                     
Freq      RB3LYP                                                      6-31G(d,p)          
Number of atoms                            I                5
Info1-9                                    I   N=           9
          20          19        1002           0           0         100
           6          18        -502
Charge                                     I                0
Multiplicity                               I                1
Number of electrons                        I               10
Number of alpha electrons                  I                5
Number of beta electrons                   I                5
Number of basis functions                  I               35
Number of independent functions            I               35
Number of point charges in /Mol/           I                0
Number of translation vectors              I                0
Atomic numbers                             I   N=           5
           6           1           1           1           1
Nuclear charges                            R   N=           5
  6.00000000E+00  1.00000000E+00  1.00000000E+00  1.00000000E+00  1.00000000E+00
Current cartesian coordinates              R   N=          15
  0.00000000E+00  0.00000000E+00  0.00000000E+00  1.19137807E+00  1.19137807E+00
  1.19137807E+00 -1.19137807E+00 -1.19137807E+00  1.19137807E+00 -1.19137807E+00
  1.19137807E+00 -1.19137807E+00  1.19137807E+00 -1.19137807E+00 -1.19137807E+00
Force Field                                I                0
Int Atom Types                             I   N=           5
           0           0           0           0           0
MM charges                                 R   N=           5
  0.00000000E+00  0.00000000E+00  0.00000000E+00  0.00000000E+00  0.00000000E+00
Integer atomic weights                     I   N=           5
          12           1           1           1           1
Real atomic weights                        R   N=           5
  1.20000000E+01  1.00782504E+00  1.00782504E+00  1.00782504E+00  1.00782504E+00
Atom fragment info                         I   N=           5
           0           0           0           0           0
Atom residue num                           I   N=           5
           0           0           0           0           0
Nuclear spins                              I   N=           5
           0           1           1           1           1
Nuclear ZEff                               R   N=           5
 -3.60000000E+00 -1.00000000E+00 -1.00000000E+00 -1.00000000E+00 -1.00000000E+00
Nuclear QMom                               R   N=           5
  0.00000000E+00  0.00000000E+00  0.00000000E+00  0.00000000E+00  0.00000000E+00
Nuclear GFac                               R   N=           5
  0.00000000E+00  2.79284600E+00  2.79284600E+00  2.79284600E+00  2.79284600E+00
MicOpt                                     I   N=           5
          -1          -1          -1          -1          -1
Number of contracted shells                I               16
Number of primitive shells                 I               31
Pure/Cartesian d shells                    I                1
Pure/Cartesian f shells                    I                0
Highest angular momentum                   I                2
Largest degree of contraction              I                6
Shell types                                I   N=          16
           0          -1          -1           2           0           0
           1           0           0           1           0           0
           1           0           0           1
Number of primitives per shell             I   N=          16
           6           3           1           1           3           1
           1           3           1           1           3           1
           1           3           1           1
Shell to atom map                          I   N=          16
           1           1           1           1           2           2
           2           3           3           3           4           4
           4           5           5           5
Primitive exponents                        R   N=          31
  3.04752488E+03  4.57369518E+02  1.03948685E+02  2.92101553E+01  9.28666296E+00
  3.16392696E+00  7.86827235E+00  1.88128854E+00  5.44249258E-01  1.68714478E-01
  8.00000000E-01  1.87311370E+01  2.82539436E+00  6.40121692E-01  1.61277759E-01
  1.10000000E+00  1.87311370E+01  2.82539436E+00  6.40121692E-01  1.61277759E-01
  1.10000000E+00  1.87311370E+01  2.82539436E+00  6.40121692E-01  1.61277759E-01
  1.10000000E+00  1.87311370E+01  2.82539436E+00  6.40121692E-01  1.61277759E-01
  1.10000000E+00
Contraction coefficients                   R   N=          31
  1.83473713E-03  1.40373228E-02  6.88426223E-02  2.32184443E-01  4.67941348E-01
  3.62311985E-01 -1.19332420E-01 -1.60854152E-01  1.14345644E+00  1.00000000E+00
  1.00000000E+00  3.34946043E-02  2.34726953E-01  8.13757326E-01  1.00000000E+00
  1.00000000E+00  3.34946043E-02  2.34726953E-01  8.13757326E-01  1.00000000E+00
  1.00000000E+00  3.34946043E-02  2.34726953E-01  8.13757326E-01  1.00000000E+00
  1.00000000E+00  3.34946043E-02  2.34726953E-01  8.13757326E-01  1.00000000E+00
  1.00000000E+00
P(S=P) Contraction coefficients            R   N=          31
  0.00000000E+00  0.00000000E+00  0.00000000E+00  0.00000000E+00  0.00000000E+00
  0.00000000E+00  6.89990666E-02  3.16423961E-01  7.44308291E-01  1.00000000E+00
  0.00000000E+00  0.00000000E+00  0.00000000E+00  0.00000000E+00  0.00000000E+00
  0.00000000E+00  0.00000000E+00  0.00000000E+00  0.00000000E+00  0.00000000E+00
  0.00000000E+00  0.00000000E+00  0.00000000E+00  0.00000000E+00  0.00000000E+00
  0.00000000E+00  0.00000000E+00  0.00000000E+00  0.00000000E+00  0.00000000E+00
  0.00000000E+00
Coordinates of each shell                  R   N=          48
  0.00000000E+00  0.00000000E+00  0.00000000E+00  0.00000000E+00  0.00000000E+00
  0.00000000E+00  0.00000000E+00  0.00000000E+00  0.00000000E+00  0.00000000E+00
  0.00000000E+00  0.00000000E+00  1.19137807E+00  1.19137807E+00  1.19137807E+00
  1.19137807E+00  1.19137807E+00  1.19137807E+00  1.19137807E+00  1.19137807E+00
  1.19137807E+00 -1.19137807E+00 -1.19137807E+00  1.19137807E+00 -1.19137807E+00
 -1.19137807E+00  1.19137807E+00 -1.19137807E+00 -1.19137807E+00  1.19137807E+00
 -1.19137807E+00  1.19137807E+00 -1.19137807E+00 -1.19137807E+00  1.19137807E+00
 -1.19137807E+00 -1.19137807E+00  1.19137807E+00 -1.19137807E+00  1.19137807E+00
 -1.19137807E+00 -1.19137807E+00  1.19137807E+00 -1.19137807E+00 -1.19137807E+00
  1.19137807E+00 -1.19137807E+00 -1.19137807E+00
Constraint Structure                       R   N=          15
  0.00000000E+00  0.00000000E+00  0.00000000E+00  1.19137807E+00  1.19137807E+00
  1.19137807E+00 -1.19137807E+00 -1.19137807E+00  1.19137807E+00 -1.19137807E+00
  1.19137807E+00 -1.19137807E+00  1.19137807E+00 -1.19137807E+00 -1.19137807E+00
Num ILSW                                   I              100
ILSW                                       I   N=         100
           0           1           0           0           2           0
           0           0           0           0         402  1342177280
           5           0           0           0           2           0
           0           0           1           0           1           0
           1           0           0           0           0           0
           0           0      100000           0          -1           0
           0           0           0           0           0           0
           0           0           0           1           0           0
           0           0           1           0           0           0
           0           0           4          40           0           0
           0           0           5           0           0           0
           0           0           0           0           0           0
           0           0           0           0           0           0
           0           0           0           0           0           0
           0           0           0           0           0           0
           0           0           0           0           0           0
           0           0           0           0
Num RLSW                                   I               40
RLSW                                       R   N=          40
  8.00000000E-01  7.20000000E-01  1.00000000E+00  8.10000000E-01  2.00000000E-01
  0.00000000E+00  0.00000000E+00  1.00000000E+00  0.00000000E+00  0.00000000E+00
  0.00000000E+00  0.00000000E+00  1.00000000E+00  0.00000000E+00  0.00000000E+00
  0.00000000E+00  0.00000000E+00  1.00000000E+00  0.00000000E+00  0.00000000E+00
  0.00000000E+00  0.00000000E+00  1.00000000E+00  0.00000000E+00  0.00000000E+00
  0.00000000E+00  0.00000000E+00  1.00000000E+00  0.00000000E+00  0.00000000E+00
  0.00000000E+00  0.00000000E+00  1.00000000E+00  0.00000000E+00  0.00000000E+00
  0.00000000E+00  0.00000000E+00  0.00000000E+00  1.00000000E+00  1.00000000E+00
MxBond                                     I                4
NBond                                      I   N=           5
           4           1           1           1           1
IBond                                      I   N=          20
           2           3           4           5           1           0
           0           0           1           0           0           0
           1           0           0           0           1           0
           0           0
RBond                                      R   N=          20
  1.00000000E+00  1.00000000E+00  1.00000000E+00  1.00000000E+00  1.00000000E+00
  0.00000000E+00  0.00000000E+00  0.00000000E+00  1.00000000E+00  0.00000000E+00
  0.00000000E+00  0.00000000E+00  1.00000000E+00  0.00000000E+00  0.00000000E+00
  0.00000000E+00  1.00000000E+00  0.00000000E+00  0.00000000E+00  0.00000000E+00
Virial Ratio                               R      2.011116999601104E+00
SCF Energy                                 R     -4.052401403625433E+01
Total Energy                               R     -4.052401403625433E+01
RMS Force                                  R      3.263072976910924E-05
RMS Density                                R      1.687360686269216E-10
External E-field                           R   N=          35
  0.00000000E+00  0.00000000E+00  0.00000000E+00  0.00000000E+00  0.00000000E+00
  0.00000000E+00  0.00000000E+00  0.00000000E+00  0.00000000E+00  0.00000000E+00
  0.00000000E+00  0.00000000E+00  0.00000000E+00  0.00000000E+00  0.00000000E+00
  0.00000000E+00  0.00000000E+00  0.00000000E+00  0.00000000E+00  0.00000000E+00
  0.00000000E+00  0.00000000E+00  0.00000000E+00  0.00000000E+00  0.00000000E+00
  0.00000000E+00  0.00000000E+00  0.00000000E+00  0.00000000E+00  0.00000000E+00
  0.00000000E+00  0.00000000E+00  0.00000000E+00  0.00000000E+00  0.00000000E+00
IOpCl                                      I                0
IROHF                                      I                0
Alpha Orbital Energies                     R   N=          35
 -1.01670726E+01 -6.90406676E-01 -3.88309069E-01 -3.88309069E-01 -3.88309069E-01
  1.18237621E-01  1.76769918E-01  1.76769918E-01  1.76769918E-01  5.29148757E-01
  5.29148757E-01  5.29148757E-01  8.74373679E-01  8.74373679E-01  8.74373679E-01
  9.22379365E-01  1.10030549E+00  1.36342088E+00  1.36342088E+00  2.04814690E+00
  2.04814690E+00  2.04814690E+00  2.05173873E+00  2.05173873E+00  2.05173873E+00
  2.62985865E+00  2.62985865E+00  2.62985865E+00  2.91127003E+00  2.91127003E+00
  3.11530272E+00  3.42039030E+00  3.42039030E+00  3.42039030E+00  4.42253806E+00
Alpha MO coefficients                      R   N=        1225
  9.92842551E-01  4.95524717E-02  0.00000000E+00  0.00000000E+00  0.00000000E+00
 -1.45433749E-02  0.00000000E+00  0.00000000E+00  0.00000000E+00 -9.12350878E-03
 -9.12350878E-03 -9.12350878E-03  0.00000000E+00  0.00000000E+00  0.00000000E+00
 -2.23871098E-04  2.54872138E-03  1.01482290E-04  1.01482290E-04  1.01482290E-04
 -2.23871098E-04  2.54872138E-03 -1.01482290E-04 -1.01482290E-04  1.01482290E-04
 -2.23871098E-04  2.54872138E-03 -1.01482290E-04  1.01482290E-04 -1.01482290E-04
 -2.23871098E-04  2.54872138E-03  1.01482290E-04 -1.01482290E-04 -1.01482290E-04
 -1.99444985E-01  3.86724562E-01  0.00000000E+00  0.00000000E+00  0.00000000E+00
  3.44272790E-01  0.00000000E+00  0.00000000E+00  0.00000000E+00 -9.52763791E-03
 -9.52763791E-03 -9.52763791E-03  0.00000000E+00  0.00000000E+00  0.00000000E+00
  1.37849396E-01  4.54475040E-02 -7.58215728E-03 -7.58215728E-03 -7.58215728E-03
  1.37849396E-01  4.54475040E-02  7.58215728E-03  7.58215728E-03 -7.58215728E-03
  1.37849396E-01  4.54475040E-02  7.58215728E-03 -7.58215728E-03  7.58215728E-03
  1.37849396E-01  4.54475040E-02 -7.58215728E-03  7.58215728E-03  7.58215728E-03
  0.00000000E+00  0.00000000E+00  4.42761788E-01  0.00000000E+00  0.00000000E+00
  0.00000000E+00  2.00222715E-01  0.00000000E+00  0.00000000E+00  0.00000000E+00
  0.00000000E+00  0.00000000E+00  0.00000000E+00  0.00000000E+00  2.28530372E-02
  1.70161869E-01  1.51044618E-01  3.24969135E-03 -5.23138048E-03 -5.23138048E-03
 -1.70161869E-01 -1.51044618E-01  3.24969135E-03 -5.23138048E-03  5.23138048E-03
 -1.70161869E-01 -1.51044618E-01  3.24969135E-03  5.23138048E-03 -5.23138048E-03
  1.70161869E-01  1.51044618E-01  3.24969135E-03  5.23138048E-03  5.23138048E-03
  0.00000000E+00  0.00000000E+00  0.00000000E+00  0.00000000E+00  4.42761788E-01
  0.00000000E+00  0.00000000E+00  0.00000000E+00  2.00222715E-01  0.00000000E+00
  0.00000000E+00  0.00000000E+00  2.28530372E-02  0.00000000E+00  0.00000000E+00
  1.70161869E-01  1.51044618E-01 -5.23138048E-03 -5.23138048E-03  3.24969135E-03
  1.70161869E-01  1.51044618E-01  5.23138048E-03  5.23138048E-03  3.24969135E-03
 -1.70161869E-01 -1.51044618E-01 -5.23138048E-03  5.23138048E-03  3.24969135E-03
 -1.70161869E-01 -1.51044618E-01  5.23138048E-03 -5.23138048E-03  3.24969135E-03
  0.00000000E+00  0.00000000E+00  0.00000000E+00  4.42761788E-01  0.00000000E+00
  0.00000000E+00  0.00000000E+00  2.00222715E-01  0.00000000E+00  0.00000000E+00
  0.00000000E+00  0.00000000E+00  0.00000000E+00  2.28530372E-02  0.00000000E+00
  1.70161869E-01  1.51044618E-01 -5.23138048E-03  3.24969135E-03 -5.23138048E-03
 -1.70161869E-01 -1.51044618E-01 -5.23138048E-03  3.24969135E-03  5.23138048E-03
  1.70161869E-01  1.51044618E-01  5.23138048E-03  3.24969135E-03  5.23138048E-03
 -1.70161869E-01 -1.51044618E-01  5.23138048E-03  3.24969135E-03 -5.23138048E-03
 -1.63215610E-01  1.97647199E-01  0.00000000E+00  0.00000000E+00  0.00000000E+00
  2.60834159E+00  0.00000000E+00  0.00000000E+00  0.00000000E+00 -1.69679418E-02
 -1.69679418E-02 -1.69679418E-02  0.00000000E+00  0.00000000E+00  0.00000000E+00
 -1.77992569E-02 -9.90718668E-01 -2.99952341E-03 -2.99952341E-03 -2.99952341E-03
 -1.77992569E-02 -9.90718668E-01  2.99952341E-03  2.99952341E-03 -2.99952341E-03
 -1.77992569E-02 -9.90718668E-01  2.99952341E-03 -2.99952341E-03  2.99952341E-03
 -1.77992569E-02 -9.90718668E-01 -2.99952341E-03  2.99952341E-03  2.99952341E-03
  0.00000000E+00  0.00000000E+00  3.81220675E-01  0.00000000E+00  0.00000000E+00
  0.00000000E+00  1.34475502E+00  0.00000000E+00  0.00000000E+00  0.00000000E+00
  0.00000000E+00  0.00000000E+00  0.00000000E+00  0.00000000E+00 -2.01419572E-02
 -7.27950990E-02 -1.07454952E+00  6.48274597E-03 -5.05464268E-03 -5.05464268E-03
  7.27950990E-02  1.07454952E+00  6.48274597E-03 -5.05464268E-03  5.05464268E-03
  7.27950990E-02  1.07454952E+00  6.48274597E-03  5.05464268E-03 -5.05464268E-03
 -7.27950990E-02 -1.07454952E+00  6.48274597E-03  5.05464268E-03  5.05464268E-03
  0.00000000E+00  0.00000000E+00  0.00000000E+00  3.81220675E-01  0.00000000E+00
  0.00000000E+00  0.00000000E+00  1.34475502E+00  0.00000000E+00  0.00000000E+00
  0.00000000E+00  0.00000000E+00  0.00000000E+00 -2.01419572E-02  0.00000000E+00
 -7.27950990E-02 -1.07454952E+00 -5.05464268E-03  6.48274597E-03 -5.05464268E-03
  7.27950990E-02  1.07454952E+00 -5.05464268E-03  6.48274597E-03  5.05464268E-03
 -7.27950990E-02 -1.07454952E+00  5.05464268E-03  6.48274597E-03  5.05464268E-03
  7.27950990E-02  1.07454952E+00  5.05464268E-03  6.48274597E-03 -5.05464268E-03
  0.00000000E+00  0.00000000E+00  0.00000000E+00  0.00000000E+00  3.81220675E-01
  0.00000000E+00  0.00000000E+00  0.00000000E+00  1.34475502E+00  0.00000000E+00
  0.00000000E+00  0.00000000E+00 -2.01419572E-02  0.00000000E+00  0.00000000E+00
 -7.27950990E-02 -1.07454952E+00 -5.05464268E-03 -5.05464268E-03  6.48274597E-03
 -7.27950990E-02 -1.07454952E+00  5.05464268E-03  5.05464268E-03  6.48274597E-03
  7.27950990E-02  1.07454952E+00 -5.05464268E-03  5.05464268E-03  6.48274597E-03
  7.27950990E-02  1.07454952E+00  5.05464268E-03 -5.05464268E-03  6.48274597E-03
  0.00000000E+00  0.00000000E+00  0.00000000E+00  0.00000000E+00 -7.45859151E-01
  0.00000000E+00  0.00000000E+00  0.00000000E+00  1.45073473E+00  0.00000000E+00
  0.00000000E+00  0.00000000E+00 -7.58225598E-02  0.00000000E+00  0.00000000E+00
 -2.85502953E-01 -1.43173430E-01  7.65217911E-03  7.65217911E-03  2.77581003E-02
 -2.85502953E-01 -1.43173430E-01 -7.65217911E-03 -7.65217911E-03  2.77581003E-02
  2.85502953E-01  1.43173430E-01  7.65217911E-03 -7.65217911E-03  2.77581003E-02
  2.85502953E-01  1.43173430E-01 -7.65217911E-03  7.65217911E-03  2.77581003E-02
  0.00000000E+00  0.00000000E+00  0.00000000E+00 -7.45859151E-01  0.00000000E+00
  0.00000000E+00  0.00000000E+00  1.45073473E+00  0.00000000E+00  0.00000000E+00
  0.00000000E+00  0.00000000E+00  0.00000000E+00 -7.58225598E-02  0.00000000E+00
 -2.85502953E-01 -1.43173430E-01  7.65217911E-03  2.77581003E-02  7.65217911E-03
  2.85502953E-01  1.43173430E-01  7.65217911E-03  2.77581003E-02 -7.65217911E-03
 -2.85502953E-01 -1.43173430E-01 -7.65217911E-03  2.77581003E-02 -7.65217911E-03
  2.85502953E-01  1.43173430E-01 -7.65217911E-03  2.77581003E-02  7.65217911E-03
  0.00000000E+00  0.00000000E+00 -7.45859151E-01  0.00000000E+00  0.00000000E+00
  0.00000000E+00  1.45073473E+00  0.00000000E+00  0.00000000E+00  0.00000000E+00
  0.00000000E+00  0.00000000E+00  0.00000000E+00  0.00000000E+00 -7.58225598E-02
 -2.85502953E-01 -1.43173430E-01  2.77581003E-02  7.65217911E-03  7.65217911E-03
  2.85502953E-01  1.43173430E-01  2.77581003E-02  7.65217911E-03 -7.65217911E-03
  2.85502953E-01  1.43173430E-01  2.77581003E-02 -7.65217911E-03  7.65217911E-03
 -2.85502953E-01 -1.43173430E-01  2.77581003E-02 -7.65217911E-03 -7.65217911E-03
  0.00000000E+00  0.00000000E+00  0.00000000E+00  0.00000000E+00 -7.67177760E-01
  0.00000000E+00  0.00000000E+00  0.00000000E+00  1.31254586E+00  0.00000000E+00
  0.00000000E+00  0.00000000E+00  2.46924666E-01  0.00000000E+00  0.00000000E+00
  4.90124227E-01 -1.04290365E+00  5.27725463E-02  5.27725463E-02  1.84464976E-03
  4.90124227E-01 -1.04290365E+00 -5.27725463E-02 -5.27725463E-02  1.84464976E-03
 -4.90124227E-01  1.04290365E+00  5.27725463E-02 -5.27725463E-02  1.84464976E-03
 -4.90124227E-01  1.04290365E+00 -5.27725463E-02  5.27725463E-02  1.84464976E-03
  0.00000000E+00  0.00000000E+00  0.00000000E+00 -7.67177760E-01  0.00000000E+00
  0.00000000E+00  0.00000000E+00  1.31254586E+00  0.00000000E+00  0.00000000E+00
  0.00000000E+00  0.00000000E+00  0.00000000E+00  2.46924666E-01  0.00000000E+00
  4.90124227E-01 -1.04290365E+00  5.27725463E-02  1.84464976E-03  5.27725463E-02
 -4.90124227E-01  1.04290365E+00  5.27725463E-02  1.84464976E-03 -5.27725463E-02
  4.90124227E-01 -1.04290365E+00 -5.27725463E-02  1.84464976E-03 -5.27725463E-02
 -4.90124227E-01  1.04290365E+00 -5.27725463E-02  1.84464976E-03  5.27725463E-02
  0.00000000E+00  0.00000000E+00 -7.67177760E-01  0.00000000E+00  0.00000000E+00
  0.00000000E+00  1.31254586E+00  0.00000000E+00  0.00000000E+00  0.00000000E+00
  0.00000000E+00  0.00000000E+00  0.00000000E+00  0.00000000E+00  2.46924666E-01
  4.90124227E-01 -1.04290365E+00  1.84464976E-03  5.27725463E-02  5.27725463E-02
 -4.90124227E-01  1.04290365E+00  1.84464976E-03  5.27725463E-02 -5.27725463E-02
 -4.90124227E-01  1.04290365E+00  1.84464976E-03 -5.27725463E-02  5.27725463E-02
  4.90124227E-01 -1.04290365E+00  1.84464976E-03 -5.27725463E-02 -5.27725463E-02
  9.70267457E-02 -8.68067919E-01  0.00000000E+00  0.00000000E+00  0.00000000E+00
  1.36383906E+00  0.00000000E+00  0.00000000E+00  0.00000000E+00  3.22224996E-02
  3.22224996E-02  3.22224996E-02  0.00000000E+00  0.00000000E+00  0.00000000E+00
  6.09457733E-01 -6.02731428E-01  4.66756202E-02  4.66756202E-02  4.66756202E-02
  6.09457733E-01 -6.02731428E-01 -4.66756202E-02 -4.66756202E-02  4.66756202E-02
  6.09457733E-01 -6.02731428E-01 -4.66756202E-02  4.66756202E-02 -4.66756202E-02
  6.09457733E-01 -6.02731428E-01  4.66756202E-02 -4.66756202E-02 -4.66756202E-02
 -1.03060195E-01 -2.03099524E+00  0.00000000E+00  0.00000000E+00  0.00000000E+00
  5.43577632E+00  0.00000000E+00  0.00000000E+00  0.00000000E+00 -1.04628678E-01
 -1.04628678E-01 -1.04628678E-01  0.00000000E+00  0.00000000E+00  0.00000000E+00
 -3.17107166E-01 -1.02376015E+00  7.41445120E-03  7.41445120E-03  7.41445120E-03
 -3.17107166E-01 -1.02376015E+00 -7.41445120E-03 -7.41445120E-03  7.41445120E-03
 -3.17107166E-01 -1.02376015E+00 -7.41445120E-03  7.41445120E-03 -7.41445120E-03
 -3.17107166E-01 -1.02376015E+00  7.41445120E-03 -7.41445120E-03 -7.41445120E-03
  2.13572302E-15  8.81005068E-14  0.00000000E+00  0.00000000E+00  0.00000000E+00
 -2.05939694E-13  0.00000000E+00  0.00000000E+00  0.00000000E+00  5.86970695E-01
 -1.68789199E-02 -5.70091775E-01  0.00000000E+00  0.00000000E+00  0.00000000E+00
  8.12963509E-15  4.30819824E-14  1.76324285E-01 -5.07037833E-03 -1.71253907E-01
  8.12963509E-15  4.30819824E-14 -1.76324285E-01  5.07037833E-03 -1.71253907E-01
  8.12963509E-15  4.30819824E-14 -1.76324285E-01 -5.07037833E-03  1.71253907E-01
  8.12963509E-15  4.30819824E-14  1.76324285E-01  5.07037833E-03  1.71253907E-01
  6.72317807E-16 -9.23375732E-15  0.00000000E+00  0.00000000E+00  0.00000000E+00
  1.11317914E-14  0.00000000E+00  0.00000000E+00  0.00000000E+00 -3.19397591E-01
  6.68030328E-01 -3.48632738E-01  0.00000000E+00  0.00000000E+00  0.00000000E+00
  1.03973070E-15 -3.90239314E-15 -9.59461050E-02  2.00674363E-01 -1.04728258E-01
  1.03973070E-15 -3.90239314E-15  9.59461050E-02 -2.00674363E-01 -1.04728258E-01
  1.03973070E-15 -3.90239314E-15  9.59461050E-02  2.00674363E-01  1.04728258E-01
  1.03973070E-15 -3.90239314E-15 -9.59461050E-02 -2.00674363E-01  1.04728258E-01
  0.00000000E+00  0.00000000E+00  0.00000000E+00  0.00000000E+00  3.49586466E-15
  0.00000000E+00  0.00000000E+00  0.00000000E+00 -4.70899804E-15  0.00000000E+00
  0.00000000E+00  0.00000000E+00 -8.08086122E-15  0.00000000E+00  0.00000000E+00
  4.26375743E-15 -2.21127618E-15  3.56064102E-01 -3.56064102E-01  3.77117468E-15
  4.26375743E-15 -2.21127618E-15 -3.56064102E-01  3.56064102E-01  3.77117468E-15
 -4.26375743E-15  2.21127618E-15  3.56064102E-01  3.56064102E-01  3.77117468E-15
 -4.26375743E-15  2.21127618E-15 -3.56064102E-01 -3.56064102E-01  3.77117468E-15
  0.00000000E+00  0.00000000E+00  0.00000000E+00 -5.44530719E-14  0.00000000E+00
  0.00000000E+00  0.00000000E+00  2.86633477E-13  0.00000000E+00  0.00000000E+00
  0.00000000E+00  0.00000000E+00  0.00000000E+00  3.47907221E-13  0.00000000E+00
 -1.78778311E-13  2.13748128E-14  3.56064102E-01 -1.38895061E-13 -3.56064102E-01
  1.78778311E-13 -2.13748128E-14  3.56064102E-01 -1.38895061E-13  3.56064102E-01
 -1.78778311E-13  2.13748128E-14 -3.56064102E-01 -1.38895061E-13  3.56064102E-01
  1.78778311E-13 -2.13748128E-14 -3.56064102E-01 -1.38895061E-13 -3.56064102E-01
  0.00000000E+00  0.00000000E+00 -5.70697916E-14  0.00000000E+00  0.00000000E+00
  0.00000000E+00  2.89282161E-13  0.00000000E+00  0.00000000E+00  0.00000000E+00
  0.00000000E+00  0.00000000E+00  0.00000000E+00  0.00000000E+00  3.53394776E-13
 -1.81428330E-13  2.26073953E-14 -1.40586294E-13  3.56064102E-01 -3.56064102E-01
  1.81428330E-13 -2.26073953E-14 -1.40586294E-13  3.56064102E-01  3.56064102E-01
  1.81428330E-13 -2.26073953E-14 -1.40586294E-13 -3.56064102E-01 -3.56064102E-01
 -1.81428330E-13  2.26073953E-14 -1.40586294E-13 -3.56064102E-01  3.56064102E-01
  0.00000000E+00  0.00000000E+00  0.00000000E+00 -1.10191609E-01  0.00000000E+00
  0.00000000E+00  0.00000000E+00  5.78515556E-01  0.00000000E+00  0.00000000E+00
  0.00000000E+00  0.00000000E+00  0.00000000E+00  6.81714111E-01  0.00000000E+00
 -3.54354817E-01  3.94216306E-02 -3.74425654E-02 -2.83922946E-01 -3.74425654E-02
  3.54354817E-01 -3.94216306E-02 -3.74425654E-02 -2.83922946E-01  3.74425654E-02
 -3.54354817E-01  3.94216306E-02  3.74425654E-02 -2.83922946E-01  3.74425654E-02
  3.54354817E-01 -3.94216306E-02  3.74425654E-02 -2.83922946E-01 -3.74425654E-02
  0.00000000E+00  0.00000000E+00  0.00000000E+00  0.00000000E+00 -1.10191609E-01
  0.00000000E+00  0.00000000E+00  0.00000000E+00  5.78515556E-01  0.00000000E+00
  0.00000000E+00  0.00000000E+00  6.81714111E-01  0.00000000E+00  0.00000000E+00
 -3.54354817E-01  3.94216306E-02 -3.74425654E-02 -3.74425654E-02 -2.83922946E-01
 -3.54354817E-01  3.94216306E-02  3.74425654E-02  3.74425654E-02 -2.83922946E-01
  3.54354817E-01 -3.94216306E-02 -3.74425654E-02  3.74425654E-02 -2.83922946E-01
  3.54354817E-01 -3.94216306E-02  3.74425654E-02 -3.74425654E-02 -2.83922946E-01
  0.00000000E+00  0.00000000E+00 -1.10191609E-01  0.00000000E+00  0.00000000E+00
  0.00000000E+00  5.78515556E-01  0.00000000E+00  0.00000000E+00  0.00000000E+00
  0.00000000E+00  0.00000000E+00  0.00000000E+00  0.00000000E+00  6.81714111E-01
 -3.54354817E-01  3.94216306E-02 -2.83922946E-01 -3.74425654E-02 -3.74425654E-02
  3.54354817E-01 -3.94216306E-02 -2.83922946E-01 -3.74425654E-02  3.74425654E-02
  3.54354817E-01 -3.94216306E-02 -2.83922946E-01  3.74425654E-02 -3.74425654E-02
 -3.54354817E-01  3.94216306E-02 -2.83922946E-01  3.74425654E-02  3.74425654E-02
  0.00000000E+00  0.00000000E+00  0.00000000E+00  1.63829106E-01  0.00000000E+00
  0.00000000E+00  0.00000000E+00  6.60759843E-01  0.00000000E+00  0.00000000E+00
  0.00000000E+00  0.00000000E+00  0.00000000E+00 -4.75378240E-01  0.00000000E+00
  3.22320832E-02 -3.08572180E-01  2.76568822E-01 -3.73575654E-01  2.76568822E-01
 -3.22320832E-02  3.08572180E-01  2.76568822E-01 -3.73575654E-01 -2.76568822E-01
  3.22320832E-02 -3.08572180E-01 -2.76568822E-01 -3.73575654E-01 -2.76568822E-01
 -3.22320832E-02  3.08572180E-01 -2.76568822E-01 -3.73575654E-01  2.76568822E-01
  0.00000000E+00  0.00000000E+00  0.00000000E+00  0.00000000E+00  1.63829106E-01
  0.00000000E+00  0.00000000E+00  0.00000000E+00  6.60759843E-01  0.00000000E+00
  0.00000000E+00  0.00000000E+00 -4.75378240E-01  0.00000000E+00  0.00000000E+00
  3.22320832E-02 -3.08572180E-01  2.76568822E-01  2.76568822E-01 -3.73575654E-01
  3.22320832E-02 -3.08572180E-01 -2.76568822E-01 -2.76568822E-01 -3.73575654E-01
 -3.22320832E-02  3.08572180E-01  2.76568822E-01 -2.76568822E-01 -3.73575654E-01
 -3.22320832E-02  3.08572180E-01 -2.76568822E-01  2.76568822E-01 -3.73575654E-01
  0.00000000E+00  0.00000000E+00  1.63829106E-01  0.00000000E+00  0.00000000E+00
  0.00000000E+00  6.60759843E-01  0.00000000E+00  0.00000000E+00  0.00000000E+00
  0.00000000E+00  0.00000000E+00  0.00000000E+00  0.00000000E+00 -4.75378240E-01
  3.22320832E-02 -3.08572180E-01 -3.73575654E-01  2.76568822E-01  2.76568822E-01
 -3.22320832E-02  3.08572180E-01 -3.73575654E-01  2.76568822E-01 -2.76568822E-01
 -3.22320832E-02  3.08572180E-01 -3.73575654E-01 -2.76568822E-01  2.76568822E-01
  3.22320832E-02 -3.08572180E-01 -3.73575654E-01 -2.76568822E-01 -2.76568822E-01
  4.29146990E-15 -3.84240992E-14  0.00000000E+00  0.00000000E+00  0.00000000E+00
 -2.54700273E-15  0.00000000E+00  0.00000000E+00  0.00000000E+00 -9.55636953E-02
 -7.38829268E-01  8.34392963E-01  0.00000000E+00  0.00000000E+00  0.00000000E+00
  2.50085666E-15  1.15096245E-15  4.32687930E-02  3.34522964E-01 -3.77791757E-01
  2.50085666E-15  1.15096245E-15 -4.32687930E-02 -3.34522964E-01 -3.77791757E-01
  2.50085666E-15  1.15096245E-15 -4.32687930E-02  3.34522964E-01  3.77791757E-01
  2.50085666E-15  1.15096245E-15  4.32687930E-02 -3.34522964E-01  3.77791757E-01
 -8.26120415E-15  6.80184998E-14  0.00000000E+00  0.00000000E+00  0.00000000E+00
  2.11831736E-14  0.00000000E+00  0.00000000E+00  0.00000000E+00  9.08300278E-01
 -5.36910727E-01 -3.71389551E-01  0.00000000E+00  0.00000000E+00  0.00000000E+00
 -3.01886216E-15 -5.01501094E-15 -4.11255096E-01  2.43099422E-01  1.68155674E-01
 -3.01886216E-15 -5.01501094E-15  4.11255096E-01 -2.43099422E-01  1.68155674E-01
 -3.01886216E-15 -5.01501094E-15  4.11255096E-01  2.43099422E-01 -1.68155674E-01
 -3.01886216E-15 -5.01501094E-15 -4.11255096E-01 -2.43099422E-01 -1.68155674E-01
 -1.39499852E-01  9.47019853E-01  0.00000000E+00  0.00000000E+00  0.00000000E+00
  1.19988541E+00  0.00000000E+00  0.00000000E+00  0.00000000E+00 -7.57399489E-02
 -7.57399489E-02 -7.57399489E-02  0.00000000E+00  0.00000000E+00  0.00000000E+00
 -2.59755714E-01 -3.34398825E-01  3.75804409E-01  3.75804409E-01  3.75804409E-01
 -2.59755714E-01 -3.34398825E-01 -3.75804409E-01 -3.75804409E-01  3.75804409E-01
 -2.59755714E-01 -3.34398825E-01 -3.75804409E-01  3.75804409E-01 -3.75804409E-01
 -2.59755714E-01 -3.34398825E-01  3.75804409E-01 -3.75804409E-01 -3.75804409E-01
  0.00000000E+00  0.00000000E+00  0.00000000E+00  9.16831204E-01  0.00000000E+00
  0.00000000E+00  0.00000000E+00  5.37555839E-01  0.00000000E+00  0.00000000E+00
  0.00000000E+00  0.00000000E+00  0.00000000E+00  1.18109167E+00  0.00000000E+00
 -4.73980698E-01 -3.18409119E-01  4.00665210E-01  4.16842594E-01  4.00665210E-01
  4.73980698E-01  3.18409119E-01  4.00665210E-01  4.16842594E-01 -4.00665210E-01
 -4.73980698E-01 -3.18409119E-01 -4.00665210E-01  4.16842594E-01 -4.00665210E-01
  4.73980698E-01  3.18409119E-01 -4.00665210E-01  4.16842594E-01  4.00665210E-01