Title Card Required                                                     
Freq      RB3LYP                                                      6-31G(d,p)          
Number of atoms                            I                3
Info1-9                                    I   N=           9
          16          15        1002           0           0         100
           6          18        -502
Charge                                     I                0
Multiplicity                               I                1
Number of electrons                        I               10
Number of alpha electrons                  I                5
Number of beta electrons                   I                5
Number of basis functions                  I               25
Number of independent functions            I               25
Number of point charges in /Mol/           I                0
Number of translation vectors              I                0
Atomic numbers                             I   N=           3
           8           1           1
Nuclear charges                            R   N=           3
  8.00000000E+00  1.00000000E+00  1.00000000E+00
Current cartesian coordinates              R   N=           9
  0.00000000E+00  4.22239517E-33  2.25230479E-01 -2.46519033E-31  1.43482690E+00
 -9.00921915E-01 -1.75715617E-16 -1.43482690E+00 -9.00921915E-01
Force Field                                I                0
Int Atom Types                             I   N=           3
           0           0           0
MM charges                                 R   N=           3
  0.00000000E+00  0.00000000E+00  0.00000000E+00
Integer atomic weights                     I   N=           3
          16           1           1
Real atomic weights                        R   N=           3
  1.59949146E+01  1.00782504E+00  1.00782504E+00
Atom fragment info                         I   N=           3
           0           0           0
Atom residue num                           I   N=           3
           0           0           0
Nuclear spins                              I   N=           3
           0           1           1
Nuclear ZEff                               R   N=           3
 -5.60000000E+00 -1.00000000E+00 -1.00000000E+00
Nuclear QMom                               R   N=           3
  0.00000000E+00  0.00000000E+00  0.00000000E+00
Nuclear GFac                               R   N=           3
  0.00000000E+00  2.79284600E+00  2.79284600E+00
MicOpt                                     I   N=           3
          -1          -1          -1
Number of contracted shells                I               10
Number of primitive shells                 I               21
Pure/Cartesian d shells                    I                1
Pure/Cartesian f shells                    I                0
Highest angular momentum                   I                2
Largest degree of contraction              I                6
Shell types                                I   N=          10
           0          -1          -1           2           0           0
           1           0           0           1
Number of primitives per shell             I   N=          10
           6           3           1           1           3           1
           1           3           1           1
Shell to atom map                          I   N=          10
           1           1           1           1           2           2
           2           3           3           3
Primitive exponents                        R   N=          21
  5.48467166E+03  8.25234946E+02  1.88046958E+02  5.29645000E+01  1.68975704E+01
  5.79963534E+00  1.55396162E+01  3.59993359E+00  1.01376175E+00  2.70005823E-01
  8.00000000E-01  1.87311370E+01  2.82539436E+00  6.40121692E-01  1.61277759E-01
  1.10000000E+00  1.87311370E+01  2.82539436E+00  6.40121692E-01  1.61277759E-01
  1.10000000E+00
Contraction coefficients                   R   N=          21
  1.83107443E-03  1.39501722E-02  6.84450781E-02  2.32714336E-01  4.70192898E-01
  3.58520853E-01 -1.10777550E-01 -1.48026263E-01  1.13076702E+00  1.00000000E+00
  1.00000000E+00  3.34946043E-02  2.34726953E-01  8.13757326E-01  1.00000000E+00
  1.00000000E+00  3.34946043E-02  2.34726953E-01  8.13757326E-01  1.00000000E+00
  1.00000000E+00
P(S=P) Contraction coefficients            R   N=          21
  0.00000000E+00  0.00000000E+00  0.00000000E+00  0.00000000E+00  0.00000000E+00
  0.00000000E+00  7.08742682E-02  3.39752839E-01  7.27158577E-01  1.00000000E+00
  0.00000000E+00  0.00000000E+00  0.00000000E+00  0.00000000E+00  0.00000000E+00
  0.00000000E+00  0.00000000E+00  0.00000000E+00  0.00000000E+00  0.00000000E+00
  0.00000000E+00
Coordinates of each shell                  R   N=          30
  0.00000000E+00  4.22239517E-33  2.25230479E-01  0.00000000E+00  4.22239517E-33
  2.25230479E-01  0.00000000E+00  4.22239517E-33  2.25230479E-01  0.00000000E+00
  4.22239517E-33  2.25230479E-01 -2.46519033E-31  1.43482690E+00 -9.00921915E-01
 -2.46519033E-31  1.43482690E+00 -9.00921915E-01 -2.46519033E-31  1.43482690E+00
 -9.00921915E-01 -1.75715617E-16 -1.43482690E+00 -9.00921915E-01 -1.75715617E-16
 -1.43482690E+00 -9.00921915E-01 -1.75715617E-16 -1.43482690E+00 -9.00921915E-01
Constraint Structure                       R   N=           9
  0.00000000E+00  4.22239517E-33  2.25230479E-01 -1.47911420E-31  1.43482690E+00
 -9.00921915E-01 -1.75715617E-16 -1.43482690E+00 -9.00921915E-01
Num ILSW                                   I              100
ILSW                                       I   N=         100
           0           1           0           0           2           0
           0           0           0           0         402  1342177280
           5           0           0           0           2           0
           0           0           1           0           1           0
           1           0           0           0           0           0
           0           0      100000           0          -1           0
           0           0           0           0           0           0
           0           0           0           1           0           0
           0           0           1           0           0           0
           0           0           4          40           0           0
           0           0           5           0           0           0
           0           0           0           0           0           0
           0           0           0           0           0           0
           0           0           0           0           0           0
           0           0           0           0           0           0
           0           0           0           0           0           0
           0           0           0           0
Num RLSW                                   I               40
RLSW                                       R   N=          40
  8.00000000E-01  7.20000000E-01  1.00000000E+00  8.10000000E-01  2.00000000E-01
  0.00000000E+00  0.00000000E+00  1.00000000E+00  0.00000000E+00  0.00000000E+00
  0.00000000E+00  0.00000000E+00  1.00000000E+00  0.00000000E+00  0.00000000E+00
  0.00000000E+00  0.00000000E+00  1.00000000E+00  0.00000000E+00  0.00000000E+00
  0.00000000E+00  0.00000000E+00  1.00000000E+00  0.00000000E+00  0.00000000E+00
  0.00000000E+00  0.00000000E+00  1.00000000E+00  0.00000000E+00  0.00000000E+00
  0.00000000E+00  0.00000000E+00  1.00000000E+00  0.00000000E+00  0.00000000E+00
  0.00000000E+00  0.00000000E+00  0.00000000E+00  1.00000000E+00  1.00000000E+00
MxBond                                     I                2
NBond                                      I   N=           3
           2           1           1
IBond                                      I   N=           6
           2           3           1           0           1           0
RBond                                      R   N=           6
  1.00000000E+00  1.00000000E+00  1.00000000E+00  0.00000000E+00  1.00000000E+00
  0.00000000E+00
Virial Ratio                               R      2.007820370359718E+00
SCF Energy                                 R     -7.641973739968023E+01
Total Energy                               R     -7.641973739968023E+01
RMS Force                                  R      6.275504548017530E-05
RMS Density                                R      1.272735607417514E-10
External E-field                           R   N=          35
  0.00000000E+00  0.00000000E+00  0.00000000E+00  0.00000000E+00  0.00000000E+00
  0.00000000E+00  0.00000000E+00  0.00000000E+00  0.00000000E+00  0.00000000E+00
  0.00000000E+00  0.00000000E+00  0.00000000E+00  0.00000000E+00  0.00000000E+00
  0.00000000E+00  0.00000000E+00  0.00000000E+00  0.00000000E+00  0.00000000E+00
  0.00000000E+00  0.00000000E+00  0.00000000E+00  0.00000000E+00  0.00000000E+00
  0.00000000E+00  0.00000000E+00  0.00000000E+00  0.00000000E+00  0.00000000E+00
  0.00000000E+00  0.00000000E+00  0.00000000E+00  0.00000000E+00  0.00000000E+00
IOpCl                                      I                0
IROHF                                      I                0
Alpha Orbital Energies                     R   N=          25
 -1.91379858E+01 -9.97355263E-01 -5.15032067E-01 -3.71019893E-01 -2.91968383E-01
  6.53760833E-02  1.51265525E-01  7.56907319E-01  8.05571343E-01  8.91351603E-01
  8.93541896E-01  1.01557517E+00  1.17538153E+00  1.52950747E+00  1.53769664E+00
  1.64365228E+00  2.23883254E+00  2.26828888E+00  2.45029515E+00  2.64114544E+00
  2.66685581E+00  3.02805516E+00  3.30739568E+00  3.53164609E+00  3.69299406E+00
Alpha MO coefficients                      R   N=         625
  9.92880924E-01  2.62256330E-02  0.00000000E+00  0.00000000E+00 -1.24176522E-03
  1.02923003E-02  0.00000000E+00  0.00000000E+00 -2.22028158E-04 -7.74346123E-03
 -7.49328238E-03 -7.54663435E-03  0.00000000E+00  0.00000000E+00  0.00000000E+00
  1.47658760E-04 -1.14908173E-03  0.00000000E+00  2.75855040E-04 -1.69011045E-04
  1.47658760E-04 -1.14908173E-03  0.00000000E+00 -2.75855040E-04 -1.69011045E-04
 -2.10483823E-01  4.67593405E-01  0.00000000E+00  0.00000000E+00 -1.19199190E-01
  4.22109091E-01  0.00000000E+00  0.00000000E+00 -4.11119401E-02 -8.07937785E-03
  1.81640172E-04  2.98176094E-03  0.00000000E+00  0.00000000E+00  0.00000000E+00
  1.52013766E-01  1.77509925E-02  0.00000000E+00 -2.10563980E-02  1.24403391E-02
  1.52013766E-01  1.77509925E-02  0.00000000E+00  2.10563980E-02  1.24403391E-02
  0.00000000E+00  0.00000000E+00  0.00000000E+00  5.14005393E-01  0.00000000E+00
  0.00000000E+00  0.00000000E+00  2.47204719E-01  0.00000000E+00  0.00000000E+00
  0.00000000E+00  0.00000000E+00  0.00000000E+00  0.00000000E+00 -2.88395636E-02
  2.44138079E-01  1.57215012E-01  0.00000000E+00 -6.10184717E-03  1.58452080E-02
 -2.44138079E-01 -1.57215012E-01  0.00000000E+00 -6.10184717E-03 -1.58452080E-02
 -8.76288699E-02  1.74169278E-01  0.00000000E+00  0.00000000E+00  5.52671235E-01
  4.16361717E-01  0.00000000E+00  0.00000000E+00  3.64059684E-01 -1.44307383E-03
 -4.43970940E-03 -4.62083828E-02  0.00000000E+00  0.00000000E+00  0.00000000E+00
 -1.44213458E-01 -1.16303024E-01  0.00000000E+00  1.02696062E-02  1.06031957E-02
 -1.44213458E-01 -1.16303024E-01  0.00000000E+00 -1.02696062E-02  1.06031957E-02
  0.00000000E+00  0.00000000E+00  6.43963071E-01  0.00000000E+00  0.00000000E+00
  0.00000000E+00  4.94566750E-01  0.00000000E+00  0.00000000E+00  0.00000000E+00
  0.00000000E+00  0.00000000E+00  0.00000000E+00 -2.90864005E-02  0.00000000E+00
  0.00000000E+00  0.00000000E+00  2.09899584E-02  0.00000000E+00  0.00000000E+00
  0.00000000E+00  0.00000000E+00  2.09899584E-02  0.00000000E+00  0.00000000E+00
 -1.01141394E-01  1.17640002E-01  0.00000000E+00  0.00000000E+00 -2.75898276E-01
  1.26144914E+00  0.00000000E+00  0.00000000E+00 -4.69965994E-01 -5.76094197E-02
 -5.17880050E-02 -3.24339518E-02  0.00000000E+00  0.00000000E+00  0.00000000E+00
 -9.02740408E-02 -9.69421394E-01  0.00000000E+00 -7.03938975E-03  4.34574397E-03
 -9.02740408E-02 -9.69421394E-01  0.00000000E+00  7.03938975E-03  4.34574397E-03
  0.00000000E+00  0.00000000E+00  0.00000000E+00 -4.10586629E-01  0.00000000E+00
  0.00000000E+00  0.00000000E+00 -7.58567307E-01  0.00000000E+00  0.00000000E+00
  0.00000000E+00  0.00000000E+00  0.00000000E+00  0.00000000E+00  1.83947583E-02
  1.03558152E-01  1.28674885E+00  0.00000000E+00 -2.82065497E-03 -3.75483842E-03
 -1.03558152E-01 -1.28674885E+00  0.00000000E+00 -2.82065497E-03  3.75483842E-03
  0.00000000E+00  0.00000000E+00  0.00000000E+00  2.02218484E-01  0.00000000E+00
  0.00000000E+00  0.00000000E+00  1.66786561E-01  0.00000000E+00  0.00000000E+00
  0.00000000E+00  0.00000000E+00  0.00000000E+00  0.00000000E+00  2.65626182E-01
 -7.70826167E-01  7.95128840E-01  0.00000000E+00 -4.95590011E-02  9.95858962E-02
  7.70826167E-01 -7.95128840E-01  0.00000000E+00 -4.95590011E-02 -9.95858962E-02
  3.72637532E-02 -8.75573227E-02  0.00000000E+00  0.00000000E+00  6.47959977E-01
  2.38183789E-01  0.00000000E+00  0.00000000E+00 -5.58277506E-01 -1.08584127E-01
  2.62300795E-01  9.43845406E-02  0.00000000E+00  0.00000000E+00  0.00000000E+00
  5.66667671E-01 -6.01205309E-01  0.00000000E+00  1.64442240E-01 -6.82172256E-02
  5.66667671E-01 -6.01205309E-01  0.00000000E+00 -1.64442240E-01 -6.82172256E-02
  0.00000000E+00  0.00000000E+00 -9.59670139E-01  0.00000000E+00  0.00000000E+00
  0.00000000E+00  1.03732139E+00  0.00000000E+00  0.00000000E+00  0.00000000E+00
  0.00000000E+00  0.00000000E+00  0.00000000E+00 -1.60396293E-02  0.00000000E+00
  0.00000000E+00  0.00000000E+00  2.01280839E-03  0.00000000E+00  0.00000000E+00
  0.00000000E+00  0.00000000E+00  2.01280839E-03  0.00000000E+00  0.00000000E+00
  1.30998271E-02 -8.16588344E-01  0.00000000E+00  0.00000000E+00 -5.29673589E-01
  1.34972340E+00  0.00000000E+00  0.00000000E+00  8.07022500E-01 -3.23627125E-01
 -1.47416546E-01 -2.72251960E-01  0.00000000E+00  0.00000000E+00  0.00000000E+00
  5.02686209E-01 -3.81608727E-01  0.00000000E+00  1.98779939E-02  3.71546801E-02
  5.02686209E-01 -3.81608727E-01  0.00000000E+00 -1.98779939E-02  3.71546801E-02
  0.00000000E+00  0.00000000E+00  0.00000000E+00 -8.64423229E-01  0.00000000E+00
  0.00000000E+00  0.00000000E+00  1.79574709E+00  0.00000000E+00  0.00000000E+00
  0.00000000E+00  0.00000000E+00  0.00000000E+00  0.00000000E+00 -9.10618185E-02
 -1.52373297E-01 -9.63931527E-01  0.00000000E+00  1.44827397E-01 -9.02285321E-02
  1.52373297E-01  9.63931527E-01  0.00000000E+00  1.44827397E-01  9.02285321E-02
 -7.68264713E-02 -1.42561856E+00  0.00000000E+00  0.00000000E+00  3.51361859E-01
  3.52786110E+00  0.00000000E+00  0.00000000E+00 -9.90395761E-01 -2.77744745E-01
 -6.25740893E-01 -3.33484982E-01  0.00000000E+00  0.00000000E+00  0.00000000E+00
 -3.26589384E-01 -7.70417400E-01  0.00000000E+00 -3.37065882E-02 -1.10020429E-01
 -3.26589384E-01 -7.70417400E-01  0.00000000E+00  3.37065882E-02 -1.10020429E-01
  0.00000000E+00  0.00000000E+00  0.00000000E+00  0.00000000E+00  0.00000000E+00
  0.00000000E+00  0.00000000E+00  0.00000000E+00  0.00000000E+00  0.00000000E+00
  0.00000000E+00  0.00000000E+00  6.80081732E-01  0.00000000E+00  0.00000000E+00
  0.00000000E+00  0.00000000E+00  3.50677714E-01  0.00000000E+00  0.00000000E+00
  0.00000000E+00  0.00000000E+00 -3.50677714E-01  0.00000000E+00  0.00000000E+00
 -2.81061934E-02 -3.23879388E-01  0.00000000E+00  0.00000000E+00  6.19760615E-02
  9.01955814E-01  0.00000000E+00  0.00000000E+00 -5.19618556E-01  2.45631520E-01
  2.55673716E-01 -7.88605297E-01  0.00000000E+00  0.00000000E+00  0.00000000E+00
 -2.37555527E-01 -1.56561100E-01  0.00000000E+00  1.82591171E-01  2.48209872E-01
 -2.37555527E-01 -1.56561100E-01  0.00000000E+00 -1.82591171E-01  2.48209872E-01
  0.00000000E+00  0.00000000E+00  1.49694716E-02  0.00000000E+00  0.00000000E+00
  0.00000000E+00  2.04978304E-01  0.00000000E+00  0.00000000E+00  0.00000000E+00
  0.00000000E+00  0.00000000E+00  0.00000000E+00  7.83564691E-01  0.00000000E+00
  0.00000000E+00  0.00000000E+00 -3.00684680E-01  0.00000000E+00  0.00000000E+00
  0.00000000E+00  0.00000000E+00 -3.00684680E-01  0.00000000E+00  0.00000000E+00
 -4.71160523E-02 -5.67737993E-01  0.00000000E+00  0.00000000E+00  2.08719229E-01
  1.36653909E+00  0.00000000E+00  0.00000000E+00 -6.37160311E-01 -1.06663522E+00
  5.21443738E-01  3.36022793E-02  0.00000000E+00  0.00000000E+00  0.00000000E+00
 -6.24419377E-01 -9.23474569E-02  0.00000000E+00 -1.61283801E-01  1.58212684E-01
 -6.24419377E-01 -9.23474569E-02  0.00000000E+00  1.61283801E-01  1.58212684E-01
  0.00000000E+00  0.00000000E+00  0.00000000E+00  3.78631221E-02  0.00000000E+00
  0.00000000E+00  0.00000000E+00 -4.78817967E-01  0.00000000E+00  0.00000000E+00
  0.00000000E+00  0.00000000E+00  0.00000000E+00  0.00000000E+00 -1.45333948E-01
  1.04109413E-01  1.03090791E-01  0.00000000E+00  4.79706160E-01  5.82470753E-01
 -1.04109413E-01 -1.03090791E-01  0.00000000E+00  4.79706160E-01 -5.82470753E-01
  0.00000000E+00  0.00000000E+00  0.00000000E+00  3.40697622E-01  0.00000000E+00
  0.00000000E+00  0.00000000E+00 -4.82732194E-01  0.00000000E+00  0.00000000E+00
  0.00000000E+00  0.00000000E+00  0.00000000E+00  0.00000000E+00  7.98023268E-01
  5.38530180E-01 -2.01951198E-01  0.00000000E+00  3.32015786E-01 -2.33051506E-01
 -5.38530180E-01  2.01951198E-01  0.00000000E+00  3.32015786E-01  2.33051506E-01
  0.00000000E+00  0.00000000E+00  0.00000000E+00  0.00000000E+00  0.00000000E+00
  0.00000000E+00  0.00000000E+00  0.00000000E+00  0.00000000E+00  0.00000000E+00
  0.00000000E+00  0.00000000E+00  8.80653206E-01  0.00000000E+00  0.00000000E+00
  0.00000000E+00  0.00000000E+00 -7.09089204E-01  0.00000000E+00  0.00000000E+00
  0.00000000E+00  0.00000000E+00  7.09089204E-01  0.00000000E+00  0.00000000E+00
  0.00000000E+00  0.00000000E+00 -1.35110366E-02  0.00000000E+00  0.00000000E+00
  0.00000000E+00 -4.17635244E-01  0.00000000E+00  0.00000000E+00  0.00000000E+00
  0.00000000E+00  0.00000000E+00  0.00000000E+00  7.36640189E-01  0.00000000E+00
  0.00000000E+00  0.00000000E+00  7.62982812E-01  0.00000000E+00  0.00000000E+00
  0.00000000E+00  0.00000000E+00  7.62982812E-01  0.00000000E+00  0.00000000E+00
  2.05038740E-02 -1.81799875E-01  0.00000000E+00  0.00000000E+00  4.55780457E-02
  1.32169020E-01  0.00000000E+00  0.00000000E+00 -4.61551767E-01 -2.07689731E-02
 -7.49869707E-01  9.48333842E-01  0.00000000E+00  0.00000000E+00  0.00000000E+00
 -9.07888710E-02 -4.50479490E-02  0.00000000E+00  4.48272233E-01  6.76545524E-01
 -9.07888710E-02 -4.50479490E-02  0.00000000E+00 -4.48272233E-01  6.76545524E-01
 -2.46847111E-01  2.00073359E-01  0.00000000E+00  0.00000000E+00 -4.37262265E-01
  2.84674199E+00  0.00000000E+00  0.00000000E+00 -8.59356208E-01 -1.19138563E+00
 -4.21644688E-02 -3.01974650E-01  0.00000000E+00  0.00000000E+00  0.00000000E+00
 -7.81055078E-01 -5.75405704E-01  0.00000000E+00  7.65019124E-01 -4.58405583E-01
 -7.81055078E-01 -5.75405704E-01  0.00000000E+00 -7.65019124E-01 -4.58405583E-01
  0.00000000E+00  0.00000000E+00  0.00000000E+00 -6.92788859E-01  0.00000000E+00
  0.00000000E+00  0.00000000E+00 -1.34225281E+00  0.00000000E+00  0.00000000E+00
  0.00000000E+00  0.00000000E+00  0.00000000E+00  0.00000000E+00  1.48348543E+00
  1.18675759E+00  5.37197514E-01  0.00000000E+00 -8.06870055E-01  6.99956696E-01
 -1.18675759E+00 -5.37197514E-01  0.00000000E+00 -8.06870055E-01 -6.99956696E-01
 -4.02347325E-01  1.70151511E-01  0.00000000E+00  0.00000000E+00  4.58721236E-01
  2.59934727E+00  0.00000000E+00  0.00000000E+00  1.19537907E-01 -1.13968776E+00
 -1.93866582E+00 -1.57746105E+00  0.00000000E+00  0.00000000E+00  0.00000000E+00
  6.59210313E-01 -2.80000191E-01  0.00000000E+00 -4.86262397E-01  4.29681745E-01
  6.59210313E-01 -2.80000191E-01  0.00000000E+00  4.86262397E-01  4.29681745E-01
Total SCF Density                          R   N=         325
  2.07558957E+00 -1.75288347E-01  4.99332627E-01  0.00000000E+00  0.00000000E+00
  8.29376873E-01 -1.36409659E-18  2.24759260E-18 -6.77927340E-32  5.28403088E-01
 -4.91467592E-02  8.09780574E-02 -2.75804061E-32  3.07831196E-18  6.39310965E-01
 -2.30226826E-01  5.40325538E-01 -1.55120020E-32  9.97997805E-18  3.59566603E-01
  7.03278191E-01  0.00000000E+00  0.00000000E+00  6.36965445E-01 -4.00593428E-32
 -2.35536158E-32  0.00000000E+00  4.89192540E-01 -1.30280164E-18  2.45240036E-18
 -3.38963670E-32  2.54129117E-01  4.38768699E-18  7.45095685E-18 -1.69481835E-32
  1.22220346E-01 -4.69383758E-02  8.83570347E-02 -1.77831768E-32  4.38768699E-18
  4.12212201E-01  2.68449012E-01 -1.15815611E-32  4.05894881E-18  2.68459389E-01
 -1.17226033E-02 -8.46456020E-03  2.78406501E-33  9.72141573E-21  3.50250914E-04
 -8.18183513E-03  2.16630182E-33 -1.06296549E-20 -3.82973678E-04  2.54640001E-04
 -1.41782455E-02 -1.76968661E-03  2.12774558E-34 -1.56216331E-18 -4.93209228E-03
 -3.69795234E-03  1.39959473E-34 -7.75512525E-19 -3.24424612E-03  1.25926461E-04
  1.51786587E-04 -8.14266673E-03 -1.37034883E-02  4.63261580E-33 -1.15857287E-20
 -5.17681926E-02 -3.61168908E-02  3.30458361E-33 -2.55087674E-19 -3.38870393E-02
  2.02056810E-04  5.24484922E-04  4.40211445E-03  2.16827554E-33  6.11564895E-34
 -1.03975538E-18  1.27901271E-33  5.55968086E-34  8.33952129E-34 -7.98537157E-19
  6.15125796E-34  3.89177660E-34 -2.69297042E-35 -2.31291411E-35 -6.77586105E-35
  4.15248550E-36  9.06160639E-34  1.04405846E-33 -3.74611356E-02  4.47554309E-33
  3.94909638E-33  2.14850439E-33 -2.87703331E-02  2.66864681E-33  2.76829162E-33
 -1.47370720E-34 -3.15039323E-35 -3.36288486E-34  4.69634717E-20  1.69203739E-03
  1.93436545E-19 -3.82470923E-19  4.47554309E-33 -2.96473824E-02 -6.78187722E-19
 -1.03900682E-18  2.66864681E-33 -1.42585524E-02 -5.86328134E-19  2.43993036E-21
  9.19131173E-20  4.43072474E-20 -7.17622205E-35 -2.39738155E-34  1.66344086E-03
 -3.84251372E-02  9.19339058E-02 -1.54074396E-32  2.50976579E-01 -1.95645462E-01
  8.24589855E-03 -7.70371978E-33  1.20704170E-01 -1.17503839E-01 -2.04241875E-03
  1.33354241E-03  1.42320501E-02  5.69867288E-34  7.22758512E-34 -1.40816713E-02
  2.07018260E-01  1.06286090E-02 -2.39726042E-02 -1.00148357E-32  1.61618728E-01
 -1.32783626E-01 -8.18861964E-02 -5.00741786E-33  7.77285856E-02 -8.61415298E-02
  6.66294904E-05  1.05637263E-03  1.08715512E-02  2.64084841E-34  3.33580852E-34
 -9.06802468E-03  1.15705716E-01  7.71187432E-02 -4.81482486E-34  9.62964972E-34
  2.70335161E-02 -5.77778983E-34 -2.11852294E-33  5.77778983E-34  2.07618710E-02
 -6.74075481E-34 -1.34815096E-33  7.07177401E-35  1.39178531E-35  2.16667119E-34
 -3.38907977E-20 -1.22104467E-03  5.55968086E-35  7.70371978E-34  3.12963616E-34
  8.81156705E-04  7.61201675E-03 -1.60998970E-02 -3.85185989E-34 -6.27276471E-03
  1.63705579E-02 -9.21877400E-03 -3.85185989E-34 -3.01681083E-03  9.20871540E-03
  3.06333446E-04 -1.02971629E-04 -1.07881763E-03 -2.08488032E-35  6.25464097E-35
  3.51949219E-04 -1.23430606E-02 -5.05555435E-03 -1.35416949E-34  1.17229069E-03
 -7.43088806E-03  1.53186781E-02 -2.02222644E-33  1.62890448E-02  8.75482561E-03
  1.93284110E-02 -1.05926147E-33  7.83402039E-03  6.69757426E-03 -2.29005328E-04
 -8.70979898E-05 -9.03173889E-04  6.08090094E-35  1.84164428E-34 -9.13937770E-04
  8.46074594E-03  2.95788683E-03 -3.00926554E-35 -4.99579496E-04  1.03657796E-03
 -3.84251372E-02  9.19339058E-02  1.54074396E-32 -2.50976579E-01 -1.95645462E-01
  8.24589855E-03  7.70371978E-33 -1.20704170E-01 -1.17503839E-01 -2.04241875E-03
  1.33354241E-03  1.42320501E-02 -6.67161703E-34 -2.00148511E-33  1.40816713E-02
 -3.13953469E-02 -3.78229684E-02  4.09260113E-34 -6.38428758E-03 -7.01292868E-03
  2.07018260E-01  1.06286090E-02 -2.39726042E-02  1.00148357E-32 -1.61618728E-01
 -1.32783626E-01 -8.18861964E-02  5.00741786E-33 -7.77285856E-02 -8.61415298E-02
  6.66294904E-05  1.05637263E-03  1.08715512E-02 -5.14270479E-34 -1.44551702E-33
  9.06802468E-03 -3.78229684E-02 -2.17474968E-02  7.22223729E-35 -1.21834644E-03
 -7.00653146E-03  1.15705716E-01  7.71187432E-02  4.81482486E-34 -9.62964972E-34
  2.70335161E-02 -5.77778983E-34  0.00000000E+00 -5.77778983E-34  2.07618710E-02
 -6.74075481E-34 -1.92592994E-34  1.29398418E-34 -6.39468927E-36  6.01853108E-36
 -3.38907977E-20 -1.22104467E-03 -6.94960107E-36 -4.09260113E-34 -7.22223729E-35
  8.81156705E-04  6.01853108E-35 -4.51389831E-35 -7.70371978E-34 -3.12963616E-34
  8.81156705E-04 -7.61201675E-03  1.60998970E-02  7.70371978E-34 -6.27276471E-03
 -1.63705579E-02  9.21877400E-03  2.88889492E-34 -3.01681083E-03 -9.20871540E-03
 -3.06333446E-04  1.02971629E-04  1.07881763E-03 -1.21618019E-35 -2.08488032E-35
  3.51949219E-04  6.38428758E-03  1.21834644E-03  6.01853108E-35 -1.02336053E-03
  1.12839344E-04  1.23430606E-02  5.05555435E-03 -1.77546667E-34  1.17229069E-03
 -7.43088806E-03  1.53186781E-02  1.25185446E-33 -1.62890448E-02  8.75482561E-03
  1.93284110E-02  4.81482486E-34 -7.83402039E-03  6.69757426E-03 -2.29005328E-04
 -8.70979898E-05 -9.03173889E-04 -1.73740027E-35  6.94960107E-36  9.13937770E-04
 -7.01292868E-03 -7.00653146E-03 -2.33218079E-35 -1.12839344E-04  3.22954860E-05
  8.46074594E-03  2.95788683E-03 -1.29398418E-34  4.99579496E-04  1.03657796E-03
QEq coupling tensors                       R   N=          18
  1.90345490E+00  5.68775083E-17 -1.60618519E+00  4.35987579E-17  2.26485497E-14
 -2.97269705E-01  2.66348471E-01  2.75785692E-19 -2.19439639E-01  1.28488336E-19
  3.16692315E-01 -4.69088324E-02  2.66348471E-01 -9.47644461E-17 -2.19439639E-01
 -7.43869705E-17 -3.16692315E-01 -4.69088324E-02
Mulliken Charges                           R   N=           3
 -6.09846010E-01  3.04923005E-01  3.04923005E-01
NPA Charges                                R   N=           3
 -9.43538352E-01  4.71769176E-01  4.71769176E-01
Optimization MaxStp                        I                2
Optimization Job offset                    I                0
Optimization Num results per geometry      I                2
Optimization Num geometry variables        I                9
Opt point       1 Results for each geome   R   N=           2
 -7.64197374E+01  0.00000000E+00
Opt point       1 Geometries               R   N=           9
  0.00000000E+00  4.22239517E-33  2.25230479E-01 -1.47911420E-31  1.43482690E+00
 -9.00921915E-01 -1.75715617E-16 -1.43482690E+00 -9.00921915E-01
Opt point       1 Gradient at each geome   R   N=           9
  6.93705741E-16  6.98434230E-15 -1.25911508E-04  1.58326658E-17 -7.63649127E-05
  6.29557541E-05 -7.09538406E-16  7.63649127E-05  6.29557541E-05
Optimization Number of geometries          I   N=           1
           1
ONIOM Charges                              I   N=          16
           0           0           0           0           0           0
           0           0           0           0           0           0
           0           0           0           0
ONIOM Multiplicities                       I   N=          16
           1           0           0           0           0           0
           0           0           0           0           0           0
           0           0           0           0
Atom Layers                                I   N=           3
           1           1           1
Atom Modifiers                             I   N=           3
           0           0           0
Force Field                                I                0
Int Atom Modified Types                    I   N=           3
           0           0           0
Link Atoms                                 I   N=           3
           0           0           0
Atom Modified MM Charges                   R   N=           3
  0.00000000E+00  0.00000000E+00  0.00000000E+00
Link Distances                             R   N=          12
  0.00000000E+00  0.00000000E+00  0.00000000E+00  0.00000000E+00  0.00000000E+00
  0.00000000E+00  0.00000000E+00  0.00000000E+00  0.00000000E+00  0.00000000E+00
  0.00000000E+00  0.00000000E+00
Cartesian Gradient                         R   N=           9
  6.93705741E-16  6.98434230E-15 -1.25911508E-04  1.58326658E-17 -7.63649127E-05
  6.29557541E-05 -7.09538406E-16  7.63649127E-05  6.29557541E-05
Cartesian Force Constants                  R   N=          45
 -7.69423889E-05 -6.24084011E-16  6.70843956E-01 -5.69703518E-16 -1.72395431E-12
  4.57246632E-01  3.84711948E-05  1.40675782E-17 -3.94201049E-18 -3.68902866E-05
 -3.40709178E-17 -3.35421978E-01  1.98887054E-01 -1.18778391E-17  3.67380060E-01
  4.74976965E-17  2.63295030E-01 -2.28623316E-01  1.70699091E-18 -2.31091042E-01
  2.17615339E-01  3.84711948E-05  5.75166517E-16  4.90025298E-16 -1.58090820E-06
  3.26205198E-17 -2.98740455E-17 -3.68902866E-05  5.64470157E-16 -3.35421978E-01
 -1.98887054E-01  3.27749479E-17 -3.19580818E-02 -3.22039884E-02 -5.49066951E-16
  3.67380060E-01  4.04825257E-16 -2.63295030E-01 -2.28623316E-01  3.24792081E-17
  3.22039884E-02  1.10079770E-02 -3.73014876E-16  2.31091042E-01  2.17615339E-01
Dipole Moment                              R   N=           3
 -4.96546956E-17  8.88178420E-16 -8.03705413E-01
Dipole Derivatives                         R   N=          27
 -7.13670056E-01  1.35273684E-15  8.50620726E-16  1.08951270E-16 -4.07389221E-01
 -9.50933776E-13  8.05741116E-17 -1.88016269E-13 -3.23893542E-01  3.56835028E-01
  1.51514415E-16  1.01672156E-16 -1.99172693E-17  2.03694610E-01  8.76357032E-02
 -1.91078822E-18  1.20195795E-01  1.61946771E-01  3.56835028E-01 -6.87663816E-16
 -6.39123168E-16 -1.34176748E-17  2.03694610E-01 -8.76357032E-02 -1.76470064E-18
 -1.20195795E-01  1.61946771E-01
Polarizability                             R   N=           6
  2.99369432E+00  2.47556962E-16  7.50795872E+00  1.45815428E-16  3.59889896E-12
  5.55788816E+00
