Title Card Required                                                     
Freq      RB3LYP                                                      6-311G(d,p)         
Number of atoms                            I                2
Info1-9                                    I   N=           9
          14          13        1002           0           0         100
           6          18        -502
Charge                                     I                0
Multiplicity                               I                1
Number of electrons                        I               18
Number of alpha electrons                  I                9
Number of beta electrons                   I                9
Number of basis functions                  I               32
Number of independent functions            I               32
Number of point charges in /Mol/           I                0
Number of translation vectors              I                0
Atomic numbers                             I   N=           2
          17           1
Nuclear charges                            R   N=           2
  1.70000000E+01  1.00000000E+00
Current cartesian coordinates              R   N=           6
  0.00000000E+00  0.00000000E+00  1.35113487E-01  0.00000000E+00  0.00000000E+00
 -2.29692927E+00
Force Field                                I                0
Int Atom Types                             I   N=           2
           0           0
MM charges                                 R   N=           2
  0.00000000E+00  0.00000000E+00
Integer atomic weights                     I   N=           2
          35           1
Real atomic weights                        R   N=           2
  3.49688527E+01  1.00782504E+00
Atom fragment info                         I   N=           2
           0           0
Atom residue num                           I   N=           2
           0           0
Nuclear spins                              I   N=           2
           3           1
Nuclear ZEff                               R   N=           2
 -1.42400000E+01 -1.00000000E+00
Nuclear QMom                               R   N=           2
 -8.16500000E+00  0.00000000E+00
Nuclear GFac                               R   N=           2
  8.21874000E-01  2.79284600E+00
MicOpt                                     I   N=           2
          -1          -1
Number of contracted shells                I               16
Number of primitive shells                 I               30
Pure/Cartesian d shells                    I                0
Pure/Cartesian f shells                    I                0
Highest angular momentum                   I                2
Largest degree of contraction              I                6
Shell types                                I   N=          16
           0           0           0           0           0           0
           1           1           1           1           1          -2
           0           0           0           1
Number of primitives per shell             I   N=          16
           6           3           1           1           1           1
           5           2           1           1           1           1
           3           1           1           1
Shell to atom map                          I   N=          16
           1           1           1           1           1           1
           1           1           1           1           1           1
           2           2           2           2
Primitive exponents                        R   N=          30
  1.05819000E+05  1.58720000E+04  3.61965000E+03  1.03080000E+03  3.39908000E+02
  1.24538000E+02  1.24538000E+02  4.95135000E+01  2.08056000E+01  6.58346000E+00
  2.56468000E+00  5.59763000E-01  1.83273000E-01  5.89776000E+02  1.39849000E+02
  4.51413000E+01  1.68733000E+01  2.77152000E+00  6.74110000E+00  2.77152000E+00
  1.02387000E+00  3.81368000E-01  1.09437000E-01  7.50000000E-01  3.38650000E+01
  5.09479000E+00  1.15879000E+00  3.25840000E-01  1.02741000E-01  7.50000000E-01
Contraction coefficients                   R   N=          30
  7.38000247E-04  5.71800191E-03  2.94950099E-02  1.17286039E-01  3.62949121E-01
  5.84149195E-01  1.34176973E-01  6.24249876E-01  2.91755942E-01  1.00000000E+00
  1.00000000E+00  1.00000000E+00  1.00000000E+00  3.66556935E-03  2.83679194E-02
  1.24756603E-01  3.39654631E-01  7.47585963E-01 -1.57224381E+00  9.92388882E-01
  1.00000000E+00  1.00000000E+00  1.00000000E+00  1.00000000E+00  2.54938145E-02
  1.90373109E-01  8.52161486E-01  1.00000000E+00  1.00000000E+00  1.00000000E+00
Coordinates of each shell                  R   N=          48
  0.00000000E+00  0.00000000E+00  1.35113487E-01  0.00000000E+00  0.00000000E+00
  1.35113487E-01  0.00000000E+00  0.00000000E+00  1.35113487E-01  0.00000000E+00
  0.00000000E+00  1.35113487E-01  0.00000000E+00  0.00000000E+00  1.35113487E-01
  0.00000000E+00  0.00000000E+00  1.35113487E-01  0.00000000E+00  0.00000000E+00
  1.35113487E-01  0.00000000E+00  0.00000000E+00  1.35113487E-01  0.00000000E+00
  0.00000000E+00  1.35113487E-01  0.00000000E+00  0.00000000E+00  1.35113487E-01
  0.00000000E+00  0.00000000E+00  1.35113487E-01  0.00000000E+00  0.00000000E+00
  1.35113487E-01  0.00000000E+00  0.00000000E+00 -2.29692927E+00  0.00000000E+00
  0.00000000E+00 -2.29692927E+00  0.00000000E+00  0.00000000E+00 -2.29692927E+00
  0.00000000E+00  0.00000000E+00 -2.29692927E+00
Constraint Structure                       R   N=           6
  0.00000000E+00  0.00000000E+00  1.35113487E-01  0.00000000E+00  0.00000000E+00
 -2.29692927E+00
Num ILSW                                   I              100
ILSW                                       I   N=         100
           0           0           0           0           2           0
           0           0           0           0         402  1342177280
           5           0           0           0           2           0
           0           0           1           0           1           0
           1           0           0           0           0           0
           0           0      100000           0          -1           0
           0           0           0           0           0           0
           0           0           0           1           0           0
           0           0           1           0           0           0
           0           0           4          40           0           0
           0           0           5           0           0           0
           0           0           0           0           0           0
           0           0           0           0           0           0
           0           0           0           0           0           0
           0           0           0           0           0           0
           0           0           0           0           0           0
           0           0           0           0
Num RLSW                                   I               40
RLSW                                       R   N=          40
  8.00000000E-01  7.20000000E-01  1.00000000E+00  8.10000000E-01  2.00000000E-01
  0.00000000E+00  0.00000000E+00  1.00000000E+00  0.00000000E+00  0.00000000E+00
  0.00000000E+00  0.00000000E+00  1.00000000E+00  0.00000000E+00  0.00000000E+00
  0.00000000E+00  0.00000000E+00  1.00000000E+00  0.00000000E+00  0.00000000E+00
  0.00000000E+00  0.00000000E+00  1.00000000E+00  0.00000000E+00  0.00000000E+00
  0.00000000E+00  0.00000000E+00  1.00000000E+00  0.00000000E+00  0.00000000E+00
  0.00000000E+00  0.00000000E+00  1.00000000E+00  0.00000000E+00  0.00000000E+00
  0.00000000E+00  0.00000000E+00  0.00000000E+00  1.00000000E+00  1.00000000E+00
MxBond                                     I                1
NBond                                      I   N=           2
           1           1
IBond                                      I   N=           2
           2           1
RBond                                      R   N=           2
  1.00000000E+00  1.00000000E+00
Virial Ratio                               R      2.002408455106079E+00
SCF Energy                                 R     -4.608334690981358E+02
Total Energy                               R     -4.608334690981358E+02
RMS Force                                  R      8.455716758639191E-06
RMS Density                                R      1.096420331142662E-09
External E-field                           R   N=          35
  0.00000000E+00  0.00000000E+00  0.00000000E+00  0.00000000E+00  0.00000000E+00
  0.00000000E+00  0.00000000E+00  0.00000000E+00  0.00000000E+00  0.00000000E+00
  0.00000000E+00  0.00000000E+00  0.00000000E+00  0.00000000E+00  0.00000000E+00
  0.00000000E+00  0.00000000E+00  0.00000000E+00  0.00000000E+00  0.00000000E+00
  0.00000000E+00  0.00000000E+00  0.00000000E+00  0.00000000E+00  0.00000000E+00
  0.00000000E+00  0.00000000E+00  0.00000000E+00  0.00000000E+00  0.00000000E+00
  0.00000000E+00  0.00000000E+00  0.00000000E+00  0.00000000E+00  0.00000000E+00
IOpCl                                      I                0
IROHF                                      I                0
Alpha Orbital Energies                     R   N=          32
 -1.01566169E+02 -9.48079055E+00 -7.24529184E+00 -7.23554699E+00 -7.23554699E+00
 -8.54494834E-01 -4.80842038E-01 -3.39973435E-01 -3.39973435E-01 -8.90561194E-03
  1.80806247E-01  2.76332224E-01  2.76332224E-01  2.88122789E-01  7.21510551E-01
  7.33871804E-01  7.33871804E-01  8.55452452E-01  8.55452731E-01  9.90808044E-01
  1.45614038E+00  1.45614038E+00  1.97696850E+00  2.09915362E+00  2.09915362E+00
  2.24662393E+00  2.37288055E+00  9.52914197E+00  2.53573644E+01  2.53573644E+01
  2.55533047E+01  2.15477405E+02
Alpha MO coefficients                      R   N=        1024
  4.11608822E-01  6.54082222E-01  1.49662505E-02 -3.89462050E-03  1.29484150E-03
 -6.06103274E-04  0.00000000E+00  0.00000000E+00 -1.05677205E-04  0.00000000E+00
  0.00000000E+00 -2.28394981E-05  0.00000000E+00  0.00000000E+00  1.43057007E-04
  0.00000000E+00  0.00000000E+00 -2.21100347E-04  0.00000000E+00  0.00000000E+00
  1.70913953E-04  5.48422847E-05  0.00000000E+00  0.00000000E+00  2.00750378E-17
  0.00000000E+00  2.13597775E-05 -1.49300759E-04  2.58336589E-04  0.00000000E+00
  0.00000000E+00 -1.18364931E-04 -1.21800094E-01 -3.26906701E-01  4.97128316E-01
  6.11684503E-01  5.49141757E-02 -1.50752142E-02  0.00000000E+00  0.00000000E+00
 -5.28238519E-03  0.00000000E+00  0.00000000E+00  1.74950719E-03  0.00000000E+00
  0.00000000E+00  2.60088558E-04  0.00000000E+00  0.00000000E+00 -3.19777395E-03
  0.00000000E+00  0.00000000E+00  3.27024092E-03  1.38214712E-03  0.00000000E+00
  0.00000000E+00 -5.66361707E-17  0.00000000E+00  2.68022730E-04 -2.68624167E-03
  5.43768417E-03  0.00000000E+00  0.00000000E+00 -2.14600502E-03 -8.09085205E-04
 -2.19938657E-03  3.49150571E-03  4.14148176E-03 -1.69054483E-05 -3.43183864E-04
  0.00000000E+00  0.00000000E+00  8.04479651E-01  0.00000000E+00  0.00000000E+00
 -2.72557356E-01  0.00000000E+00  0.00000000E+00  5.32310975E-02  0.00000000E+00
  0.00000000E+00 -6.64220684E-04  0.00000000E+00  0.00000000E+00  1.39947485E-04
 -7.72113875E-04  0.00000000E+00  0.00000000E+00  6.26795986E-18  0.00000000E+00
 -1.32280867E-04  3.64420762E-04  8.66083681E-06  0.00000000E+00  0.00000000E+00
  2.65653241E-04  0.00000000E+00  0.00000000E+00  0.00000000E+00  0.00000000E+00
  0.00000000E+00  0.00000000E+00  0.00000000E+00  8.04878650E-01  0.00000000E+00
  0.00000000E+00 -2.72775518E-01  0.00000000E+00  0.00000000E+00  5.22002181E-02
  0.00000000E+00  0.00000000E+00 -7.75677764E-04  0.00000000E+00  0.00000000E+00
  2.22144004E-05  0.00000000E+00  0.00000000E+00  0.00000000E+00 -4.17060116E-04
  0.00000000E+00  0.00000000E+00  0.00000000E+00  0.00000000E+00  0.00000000E+00
  0.00000000E+00 -4.92293585E-05  0.00000000E+00  0.00000000E+00  0.00000000E+00
  0.00000000E+00  0.00000000E+00  0.00000000E+00  0.00000000E+00  8.04878650E-01
  0.00000000E+00  0.00000000E+00 -2.72775518E-01  0.00000000E+00  0.00000000E+00
  5.22002181E-02  0.00000000E+00  0.00000000E+00 -7.75677764E-04  0.00000000E+00
  0.00000000E+00  2.22144004E-05  0.00000000E+00  0.00000000E+00  0.00000000E+00
 -4.17060116E-04  0.00000000E+00  0.00000000E+00  0.00000000E+00  0.00000000E+00
  0.00000000E+00  0.00000000E+00 -4.92293585E-05  0.00000000E+00  0.00000000E+00
  3.64979831E-02  1.04412619E-01 -2.11126504E-01 -3.94393074E-01  6.15114471E-01
  4.85258473E-01  0.00000000E+00  0.00000000E+00  3.62102908E-02  0.00000000E+00
  0.00000000E+00 -1.29237614E-02  0.00000000E+00  0.00000000E+00 -4.18316837E-02
  0.00000000E+00  0.00000000E+00 -5.88101837E-02  0.00000000E+00  0.00000000E+00
 -1.61777861E-02  2.27484640E-02  0.00000000E+00  0.00000000E+00 -1.26801091E-16
  0.00000000E+00  9.40539008E-02  1.16217631E-01 -5.00864278E-03  0.00000000E+00
  0.00000000E+00  2.81009408E-02  1.21211593E-02  3.49071116E-02 -7.25936673E-02
 -1.31299281E-01  1.99898698E-01  2.96665966E-01  0.00000000E+00  0.00000000E+00
 -1.88304941E-01  0.00000000E+00  0.00000000E+00  6.97605753E-02  0.00000000E+00
  0.00000000E+00  2.17344092E-01  0.00000000E+00  0.00000000E+00  4.10839995E-01
  0.00000000E+00  0.00000000E+00  1.67750442E-01 -4.43341184E-02  0.00000000E+00
  0.00000000E+00  8.68695232E-18  0.00000000E+00 -1.61911700E-01 -2.98823827E-01
 -5.07925048E-02  0.00000000E+00  0.00000000E+00 -2.79730084E-02  0.00000000E+00
  0.00000000E+00  0.00000000E+00  0.00000000E+00  0.00000000E+00  0.00000000E+00
  0.00000000E+00 -2.28212222E-01  0.00000000E+00  0.00000000E+00  8.61985944E-02
  0.00000000E+00  0.00000000E+00  2.62473159E-01  0.00000000E+00  0.00000000E+00
  5.73026018E-01  0.00000000E+00  0.00000000E+00  3.47439713E-01  0.00000000E+00
  0.00000000E+00  0.00000000E+00 -1.68075998E-02  0.00000000E+00  0.00000000E+00
  0.00000000E+00  0.00000000E+00  0.00000000E+00  0.00000000E+00  2.66112627E-02
  0.00000000E+00  0.00000000E+00  0.00000000E+00  0.00000000E+00  0.00000000E+00
  0.00000000E+00  0.00000000E+00 -2.28212222E-01  0.00000000E+00  0.00000000E+00
  8.61985944E-02  0.00000000E+00  0.00000000E+00  2.62473159E-01  0.00000000E+00
  0.00000000E+00  5.73026018E-01  0.00000000E+00  0.00000000E+00  3.47439713E-01
  0.00000000E+00  0.00000000E+00  0.00000000E+00 -1.68075998E-02  0.00000000E+00
  0.00000000E+00  0.00000000E+00  0.00000000E+00  0.00000000E+00  0.00000000E+00
  2.66112627E-02  0.00000000E+00  0.00000000E+00 -1.20034971E-02 -3.51258192E-02
  7.79292986E-02  1.20679761E-01 -1.45612899E-01 -8.74457105E-01  0.00000000E+00
  0.00000000E+00 -1.15595984E-01  0.00000000E+00  0.00000000E+00  4.44157325E-02
  0.00000000E+00  0.00000000E+00  1.37224984E-01  0.00000000E+00  0.00000000E+00
  3.45046974E-01  0.00000000E+00  0.00000000E+00  7.36608284E-01  6.96752595E-02
  0.00000000E+00  0.00000000E+00  2.98919681E-16  0.00000000E+00  1.23451019E-01
  2.82444612E-01  1.39086585E+00  0.00000000E+00  0.00000000E+00 -1.63821687E-02
 -9.57167516E-04 -3.01176139E-03  8.54959781E-03  1.80860470E-03  7.37203715E-02
 -1.24810597E-01  0.00000000E+00  0.00000000E+00 -8.09126515E-03  0.00000000E+00
  0.00000000E+00  3.45633217E-03  0.00000000E+00  0.00000000E+00 -2.49342999E-03
  0.00000000E+00  0.00000000E+00  6.00037729E-02  0.00000000E+00  0.00000000E+00
  6.52272618E-01  1.63935759E-01  0.00000000E+00  0.00000000E+00 -6.53649525E-17
  0.00000000E+00  1.25094427E-01  1.22996096E+00 -9.98203573E-01  0.00000000E+00
  0.00000000E+00  6.02139396E-02  0.00000000E+00  0.00000000E+00  0.00000000E+00
  0.00000000E+00  0.00000000E+00  0.00000000E+00  1.43144407E-01  0.00000000E+00
  0.00000000E+00 -6.61203671E-02  0.00000000E+00  0.00000000E+00 -1.00611061E-01
  0.00000000E+00  0.00000000E+00 -9.29294980E-01  0.00000000E+00  0.00000000E+00
  1.23456768E+00  0.00000000E+00  0.00000000E+00  0.00000000E+00  1.24040850E-02
  0.00000000E+00  0.00000000E+00  0.00000000E+00  0.00000000E+00  0.00000000E+00
  0.00000000E+00 -1.94327064E-03  0.00000000E+00  0.00000000E+00  0.00000000E+00
  0.00000000E+00  0.00000000E+00  0.00000000E+00  0.00000000E+00  0.00000000E+00
  0.00000000E+00  1.43144407E-01  0.00000000E+00  0.00000000E+00 -6.61203671E-02
  0.00000000E+00  0.00000000E+00 -1.00611061E-01  0.00000000E+00  0.00000000E+00
 -9.29294980E-01  0.00000000E+00  0.00000000E+00  1.23456768E+00  0.00000000E+00
  0.00000000E+00  0.00000000E+00  1.24040850E-02  0.00000000E+00  0.00000000E+00
  0.00000000E+00  0.00000000E+00  0.00000000E+00  0.00000000E+00 -1.94327064E-03
  0.00000000E+00 -6.86319044E-03 -1.94371789E-02  3.75995236E-02  9.53799923E-02
 -2.58226702E-01 -1.66200583E-01  0.00000000E+00  0.00000000E+00  1.51297970E-01
  0.00000000E+00  0.00000000E+00 -6.99082314E-02  0.00000000E+00  0.00000000E+00
 -9.71168075E-02  0.00000000E+00  0.00000000E+00 -1.03141286E+00  0.00000000E+00
  0.00000000E+00  1.39947658E+00 -4.86458237E-02  0.00000000E+00  0.00000000E+00
 -4.31169987E-16  0.00000000E+00 -8.02702319E-02 -5.44945459E-01  1.13038429E+00
  0.00000000E+00  0.00000000E+00 -1.69400365E-02 -3.28496131E-02 -8.97370855E-02
  1.44340385E-01  6.02654432E-01 -2.21431950E+00  2.61168340E+00  0.00000000E+00
  0.00000000E+00 -5.90952728E-02  0.00000000E+00  0.00000000E+00  1.65635815E-02
  0.00000000E+00  0.00000000E+00  1.58619657E-01  0.00000000E+00  0.00000000E+00
 -5.32683991E-02  0.00000000E+00  0.00000000E+00 -7.10905358E-01 -1.68230323E-01
  0.00000000E+00  0.00000000E+00  4.33851912E-16  0.00000000E+00  8.63479838E-02
  6.88202999E-02 -1.34190666E+00  0.00000000E+00  0.00000000E+00 -2.12220324E-01
  0.00000000E+00  0.00000000E+00  0.00000000E+00  0.00000000E+00  0.00000000E+00
  0.00000000E+00  0.00000000E+00 -1.50866263E-02  0.00000000E+00  0.00000000E+00
  6.82837929E-03  0.00000000E+00  0.00000000E+00  1.59839153E-02  0.00000000E+00
  0.00000000E+00  6.00264765E-02  0.00000000E+00  0.00000000E+00  5.00675831E-02
  0.00000000E+00  0.00000000E+00  0.00000000E+00  8.45706904E-01  0.00000000E+00
  0.00000000E+00  0.00000000E+00  0.00000000E+00  0.00000000E+00  0.00000000E+00
 -3.79029492E-01  0.00000000E+00  0.00000000E+00  0.00000000E+00  0.00000000E+00
  0.00000000E+00  0.00000000E+00  0.00000000E+00 -1.50866263E-02  0.00000000E+00
  0.00000000E+00  6.82837929E-03  0.00000000E+00  0.00000000E+00  1.59839153E-02
  0.00000000E+00  0.00000000E+00  6.00264765E-02  0.00000000E+00  0.00000000E+00
  5.00675831E-02  0.00000000E+00  0.00000000E+00  0.00000000E+00  8.45706904E-01
  0.00000000E+00  0.00000000E+00  0.00000000E+00  0.00000000E+00  0.00000000E+00
  0.00000000E+00 -3.79029492E-01  0.00000000E+00  0.00000000E+00  6.62589551E-17
  1.91984750E-16 -4.28583253E-16 -8.43921131E-16  3.36261243E-15 -3.64447687E-15
  0.00000000E+00  0.00000000E+00  2.15794659E-16  0.00000000E+00  0.00000000E+00
 -1.27958192E-16  0.00000000E+00  0.00000000E+00  2.27900682E-16  0.00000000E+00
  0.00000000E+00 -9.12259603E-16  0.00000000E+00  0.00000000E+00  2.28116004E-15
 -1.42484201E-15  0.00000000E+00  0.00000000E+00  1.00000000E+00  0.00000000E+00
 -9.70369909E-16  2.44231544E-15  7.57254740E-16  0.00000000E+00  0.00000000E+00
 -2.77355887E-16  0.00000000E+00  0.00000000E+00  0.00000000E+00  0.00000000E+00
  0.00000000E+00  0.00000000E+00  0.00000000E+00  0.00000000E+00  0.00000000E+00
  0.00000000E+00  0.00000000E+00  0.00000000E+00  0.00000000E+00  0.00000000E+00
  0.00000000E+00  0.00000000E+00  0.00000000E+00  0.00000000E+00  0.00000000E+00
  0.00000000E+00  0.00000000E+00  0.00000000E+00  0.00000000E+00  0.00000000E+00
  0.00000000E+00  1.00000000E+00  0.00000000E+00  0.00000000E+00  0.00000000E+00
  0.00000000E+00  0.00000000E+00  0.00000000E+00 -1.21309894E-02 -3.31382541E-02
  5.32801241E-02  2.29214499E-01 -8.44565636E-01  9.42702917E-01  0.00000000E+00
  0.00000000E+00  2.36230526E-02  0.00000000E+00  0.00000000E+00 -3.12288870E-03
  0.00000000E+00  0.00000000E+00 -1.01463570E-01  0.00000000E+00  0.00000000E+00
  1.79198614E-01  0.00000000E+00  0.00000000E+00 -5.59462215E-01  8.46197999E-01
  0.00000000E+00  0.00000000E+00  1.92027571E-15  0.00000000E+00  7.34427787E-02
 -8.44022226E-01  1.89255257E-02  0.00000000E+00  0.00000000E+00  2.79330871E-01
  0.00000000E+00  0.00000000E+00  0.00000000E+00  0.00000000E+00  0.00000000E+00
  0.00000000E+00  0.00000000E+00  5.78439258E-02  0.00000000E+00  0.00000000E+00
 -1.71664379E-02  0.00000000E+00  0.00000000E+00 -1.56057884E-01  0.00000000E+00
  0.00000000E+00  4.41074895E-02  0.00000000E+00  0.00000000E+00 -1.92994363E-01
  0.00000000E+00  0.00000000E+00  0.00000000E+00  5.82573451E-01  0.00000000E+00
  0.00000000E+00  0.00000000E+00  0.00000000E+00  0.00000000E+00  0.00000000E+00
  9.74882453E-01  0.00000000E+00  0.00000000E+00  0.00000000E+00  0.00000000E+00
  0.00000000E+00  0.00000000E+00  0.00000000E+00  5.78439258E-02  0.00000000E+00
  0.00000000E+00 -1.71664379E-02  0.00000000E+00  0.00000000E+00 -1.56057884E-01
  0.00000000E+00  0.00000000E+00  4.41074895E-02  0.00000000E+00  0.00000000E+00
 -1.92994363E-01  0.00000000E+00  0.00000000E+00  0.00000000E+00  5.82573451E-01
  0.00000000E+00  0.00000000E+00  0.00000000E+00  0.00000000E+00  0.00000000E+00
  0.00000000E+00  9.74882453E-01  0.00000000E+00  0.00000000E+00 -7.92607182E-04
 -1.44057704E-03 -4.93254867E-03  4.62281307E-02 -2.77243762E-01  5.34135839E-01
  0.00000000E+00  0.00000000E+00  3.33132443E-01  0.00000000E+00  0.00000000E+00
 -8.83042264E-02  0.00000000E+00  0.00000000E+00 -1.16364250E+00  0.00000000E+00
  0.00000000E+00  1.00873785E+00  0.00000000E+00  0.00000000E+00 -4.42007757E-01
  2.52625742E-01  0.00000000E+00  0.00000000E+00 -9.20178221E-17  0.00000000E+00
 -9.92080766E-01  1.25146222E+00 -8.99559071E-01  0.00000000E+00  0.00000000E+00
 -4.07969489E-01  0.00000000E+00  0.00000000E+00  0.00000000E+00  0.00000000E+00
  0.00000000E+00  0.00000000E+00  0.00000000E+00 -5.06120613E-01  0.00000000E+00
  0.00000000E+00  1.24114543E-01  0.00000000E+00  0.00000000E+00  1.90080097E+00
  0.00000000E+00  0.00000000E+00 -1.84942829E+00  0.00000000E+00  0.00000000E+00
  5.82825936E-01  0.00000000E+00  0.00000000E+00  0.00000000E+00  6.15172834E-02
  0.00000000E+00  0.00000000E+00  0.00000000E+00  0.00000000E+00  0.00000000E+00
  0.00000000E+00  1.58983292E-01  0.00000000E+00  0.00000000E+00  0.00000000E+00
  0.00000000E+00  0.00000000E+00  0.00000000E+00  0.00000000E+00 -5.06120613E-01
  0.00000000E+00  0.00000000E+00  1.24114543E-01  0.00000000E+00  0.00000000E+00
  1.90080097E+00  0.00000000E+00  0.00000000E+00 -1.84942829E+00  0.00000000E+00
  0.00000000E+00  5.82825936E-01  0.00000000E+00  0.00000000E+00  0.00000000E+00
  6.15172834E-02  0.00000000E+00  0.00000000E+00  0.00000000E+00  0.00000000E+00
  0.00000000E+00  0.00000000E+00  1.58983292E-01  0.00000000E+00  0.00000000E+00
 -7.67437160E-03 -2.33705710E-02  6.04038534E-02  7.85208143E-02 -1.35577400E-01
 -4.29470917E-01  0.00000000E+00  0.00000000E+00  3.65467815E-01  0.00000000E+00
  0.00000000E+00 -7.93271202E-02  0.00000000E+00  0.00000000E+00 -1.58337238E+00
  0.00000000E+00  0.00000000E+00  2.24398614E+00  0.00000000E+00  0.00000000E+00
 -5.39963293E-01 -6.70331093E-01  0.00000000E+00  0.00000000E+00  4.58737389E-16
  0.00000000E+00  6.34664889E-01  2.55049641E-01  4.19496732E-02  0.00000000E+00
  0.00000000E+00  9.08447859E-01 -9.86101584E-03 -2.86566030E-02  6.25551886E-02
  1.53971577E-01 -3.37204687E-01 -6.75641793E-01  0.00000000E+00  0.00000000E+00
 -1.29657670E-01  0.00000000E+00  0.00000000E+00  4.16194274E-02  0.00000000E+00
  0.00000000E+00  2.95132669E-01  0.00000000E+00  0.00000000E+00  7.63042712E-01
  0.00000000E+00  0.00000000E+00  2.30062389E-01 -7.12115811E-01  0.00000000E+00
  0.00000000E+00 -6.97205500E-16  0.00000000E+00 -1.04913169E+00  2.26328997E+00
 -3.88197559E-01  0.00000000E+00  0.00000000E+00  1.26231501E+00  1.18421597E-01
  4.80301070E-01 -2.64798332E+00  3.10224367E+00 -1.69711848E+00  7.97619001E-01
  0.00000000E+00  0.00000000E+00 -2.18031801E-04  0.00000000E+00  0.00000000E+00
 -9.43033177E-03  0.00000000E+00  0.00000000E+00 -7.32554298E-02  0.00000000E+00
  0.00000000E+00  2.65210497E-01  0.00000000E+00  0.00000000E+00 -2.09779751E-01
 -8.83253720E-02  0.00000000E+00  0.00000000E+00 -4.16109497E-16  0.00000000E+00
 -3.87704402E-02  2.31102576E-01 -3.40077762E-01  0.00000000E+00  0.00000000E+00
  1.92277026E-01  0.00000000E+00  0.00000000E+00  0.00000000E+00  0.00000000E+00
  0.00000000E+00  0.00000000E+00  0.00000000E+00 -2.18819821E+00  0.00000000E+00
  0.00000000E+00 -1.75291438E+00  0.00000000E+00  0.00000000E+00  2.31725342E+00
  0.00000000E+00  0.00000000E+00 -1.08224952E+00  0.00000000E+00  0.00000000E+00
  2.83241830E-01  0.00000000E+00  0.00000000E+00  0.00000000E+00  7.15514533E-03
  0.00000000E+00  0.00000000E+00  0.00000000E+00  0.00000000E+00  0.00000000E+00
  0.00000000E+00  2.97195060E-02  0.00000000E+00  0.00000000E+00  0.00000000E+00
  0.00000000E+00  0.00000000E+00  0.00000000E+00  0.00000000E+00 -2.18819821E+00
  0.00000000E+00  0.00000000E+00 -1.75291438E+00  0.00000000E+00  0.00000000E+00
  2.31725342E+00  0.00000000E+00  0.00000000E+00 -1.08224952E+00  0.00000000E+00
  0.00000000E+00  2.83241830E-01  0.00000000E+00  0.00000000E+00  0.00000000E+00
  7.15514533E-03  0.00000000E+00  0.00000000E+00  0.00000000E+00  0.00000000E+00
  0.00000000E+00  0.00000000E+00  2.97195060E-02  0.00000000E+00  0.00000000E+00
 -1.35832662E-03 -4.12482596E-03  3.07565859E-02 -4.97999694E-02  6.14620914E-02
 -8.03202897E-02  0.00000000E+00  0.00000000E+00 -2.20617921E+00  0.00000000E+00
  0.00000000E+00 -1.76012551E+00  0.00000000E+00  0.00000000E+00  2.37338914E+00
  0.00000000E+00  0.00000000E+00 -1.17799098E+00  0.00000000E+00  0.00000000E+00
  3.48663846E-01  3.15158728E-02  0.00000000E+00  0.00000000E+00 -4.38202585E-16
  0.00000000E+00 -5.05443945E-02 -1.14846705E-01  1.70651390E-01  0.00000000E+00
  0.00000000E+00 -5.48254847E-03 -1.54179973E+00  1.91555013E+00 -1.44096193E+00
  9.66110561E-01 -3.82758853E-01  1.79855956E-01  0.00000000E+00  0.00000000E+00
  6.11650225E-03  0.00000000E+00  0.00000000E+00  3.29137952E-03  0.00000000E+00
  0.00000000E+00 -2.02408182E-02  0.00000000E+00  0.00000000E+00  5.36909295E-02
  0.00000000E+00  0.00000000E+00 -4.72720803E-02 -1.57991295E-02  0.00000000E+00
  0.00000000E+00  8.76259319E-17  0.00000000E+00 -7.53747574E-03  4.38681340E-02
 -7.56486344E-02  0.00000000E+00  0.00000000E+00  3.56725601E-02
Total SCF Density                          R   N=         528
  3.71473530E-01  6.26558047E-01  1.09363377E+00 -1.25956942E-01 -3.54622810E-01
  5.94433965E-01 -1.84191385E-01 -4.96566332E-01  7.93680372E-01  1.09395130E+00
  3.74357432E-02  1.08197514E-01 -2.34119271E-01 -4.70516810E-01  8.42685090E-01
  4.57877075E-02  1.31110724E-01 -2.62983161E-01 -4.79109889E-01  7.13928055E-01
  6.47428457E-01  0.00000000E+00  0.00000000E+00  0.00000000E+00  0.00000000E+00
  0.00000000E+00  0.00000000E+00  1.39982092E+00  0.00000000E+00  0.00000000E+00
  0.00000000E+00  0.00000000E+00  0.00000000E+00  0.00000000E+00  0.00000000E+00
  1.39982092E+00 -2.02373369E-03 -5.80801300E-03  1.24120692E-02  2.10884234E-02
 -3.13445069E-02 -7.69774083E-02  0.00000000E+00  0.00000000E+00  1.36797072E+00
  0.00000000E+00  0.00000000E+00  0.00000000E+00  0.00000000E+00  0.00000000E+00
  0.00000000E+00 -4.78445526E-01  0.00000000E+00  0.00000000E+00  1.63673362E-01
  0.00000000E+00  0.00000000E+00  0.00000000E+00  0.00000000E+00  0.00000000E+00
  0.00000000E+00  0.00000000E+00 -4.78445526E-01  0.00000000E+00  0.00000000E+00
  1.63673362E-01  7.43837730E-04  2.19666173E-03 -4.83575050E-03 -8.24205461E-03
  1.21922128E-02  2.89828013E-02  0.00000000E+00  0.00000000E+00 -4.65760640E-01
  0.00000000E+00  0.00000000E+00  1.58648270E-01  0.00000000E+00  0.00000000E+00
  0.00000000E+00  0.00000000E+00  0.00000000E+00  0.00000000E+00 -3.57694833E-02
  0.00000000E+00  0.00000000E+00  1.67717517E-02  0.00000000E+00  0.00000000E+00
  1.43234044E-01  0.00000000E+00  0.00000000E+00  0.00000000E+00  0.00000000E+00
  0.00000000E+00  0.00000000E+00  0.00000000E+00 -3.57694833E-02  0.00000000E+00
  0.00000000E+00  1.67717517E-02  0.00000000E+00  0.00000000E+00  1.43234044E-01
  2.18365301E-03  6.22113884E-03 -1.32574650E-02 -2.33200122E-02  3.54581899E-02
  8.83142810E-02  0.00000000E+00  0.00000000E+00  7.60483426E-04  0.00000000E+00
  0.00000000E+00  2.38919236E-03  0.00000000E+00  0.00000000E+00  1.03643964E-01
  0.00000000E+00  0.00000000E+00  0.00000000E+00  0.00000000E+00  0.00000000E+00
  0.00000000E+00 -2.62791734E-01  0.00000000E+00  0.00000000E+00  9.92112463E-02
  0.00000000E+00  0.00000000E+00  3.00726917E-01  0.00000000E+00  0.00000000E+00
  6.56718837E-01  0.00000000E+00  0.00000000E+00  0.00000000E+00  0.00000000E+00
  0.00000000E+00  0.00000000E+00  0.00000000E+00 -2.62791734E-01  0.00000000E+00
  0.00000000E+00  9.92112463E-02  0.00000000E+00  0.00000000E+00  3.00726917E-01
  0.00000000E+00  0.00000000E+00  6.56718837E-01  6.26484731E-03  1.82058581E-02
 -3.80066511E-02 -6.54131704E-02  9.15510135E-02  1.86785346E-01  0.00000000E+00
  0.00000000E+00 -1.60020343E-01  0.00000000E+00  0.00000000E+00  5.91918638E-02
  0.00000000E+00  0.00000000E+00  1.83435108E-01  0.00000000E+00  0.00000000E+00
  3.44517709E-01  0.00000000E+00  0.00000000E+00  0.00000000E+00  0.00000000E+00
  0.00000000E+00  0.00000000E+00 -1.58544218E-01  0.00000000E+00  0.00000000E+00
  5.98855107E-02  0.00000000E+00  0.00000000E+00  1.82389517E-01  0.00000000E+00
  0.00000000E+00  3.98183956E-01  0.00000000E+00  0.00000000E+00  2.41428709E-01
  0.00000000E+00  0.00000000E+00  0.00000000E+00  0.00000000E+00  0.00000000E+00
  0.00000000E+00  0.00000000E+00 -1.58544218E-01  0.00000000E+00  0.00000000E+00
  5.98855107E-02  0.00000000E+00  0.00000000E+00  1.82389517E-01  0.00000000E+00
  0.00000000E+00  3.98183956E-01  0.00000000E+00  0.00000000E+00  2.41428709E-01
  2.22958816E-03  6.41787741E-03 -1.42665689E-02 -2.72896720E-02  4.75234124E-02