Title Card Required                                                     
Freq      RB3LYP                                                      6-31G(d,p)          
Number of atoms                            I                4
Info1-9                                    I   N=           9
          18          17        1002           0           0         100
           6          18        -502
Charge                                     I                0
Multiplicity                               I                1
Number of electrons                        I               10
Number of alpha electrons                  I                5
Number of beta electrons                   I                5
Number of basis functions                  I               30
Number of independent functions            I               30
Number of point charges in /Mol/           I                0
Number of translation vectors              I                0
Atomic numbers                             I   N=           4
           7           1           1           1
Nuclear charges                            R   N=           4
  7.00000000E+00  1.00000000E+00  1.00000000E+00  1.00000000E+00
Current cartesian coordinates              R   N=          12
 -4.59688743E-22 -5.50736652E-17  2.25319098E-01  5.39727303E-16  1.77101959E+00
 -5.25744561E-01 -1.53374795E+00 -8.85509793E-01 -5.25744561E-01  1.53374795E+00
 -8.85509793E-01 -5.25744561E-01
Force Field                                I                0
Int Atom Types                             I   N=           4
           0           0           0           0
MM charges                                 R   N=           4
  0.00000000E+00  0.00000000E+00  0.00000000E+00  0.00000000E+00
Integer atomic weights                     I   N=           4
          14           1           1           1
Real atomic weights                        R   N=           4
  1.40030740E+01  1.00782504E+00  1.00782504E+00  1.00782504E+00
Atom fragment info                         I   N=           4
           0           0           0           0
Atom residue num                           I   N=           4
           0           0           0           0
Nuclear spins                              I   N=           4
           2           1           1           1
Nuclear ZEff                               R   N=           4
 -4.55000000E+00 -1.00000000E+00 -1.00000000E+00 -1.00000000E+00
Nuclear QMom                               R   N=           4
  2.04400000E+00  0.00000000E+00  0.00000000E+00  0.00000000E+00
Nuclear GFac                               R   N=           4
  4.03761000E-01  2.79284600E+00  2.79284600E+00  2.79284600E+00
MicOpt                                     I   N=           4
          -1          -1          -1          -1
Number of contracted shells                I               13
Number of primitive shells                 I               26
Pure/Cartesian d shells                    I                1
Pure/Cartesian f shells                    I                0
Highest angular momentum                   I                2
Largest degree of contraction              I                6
Shell types                                I   N=          13
           0          -1          -1           2           0           0
           1           0           0           1           0           0
           1
Number of primitives per shell             I   N=          13
           6           3           1           1           3           1
           1           3           1           1           3           1
           1
Shell to atom map                          I   N=          13
           1           1           1           1           2           2
           2           3           3           3           4           4
           4
Primitive exponents                        R   N=          26
  4.17351146E+03  6.27457911E+02  1.42902093E+02  4.02343293E+01  1.28202129E+01
  4.39043701E+00  1.16263619E+01  2.71627981E+00  7.72218397E-01  2.12031498E-01
  8.00000000E-01  1.87311370E+01  2.82539436E+00  6.40121692E-01  1.61277759E-01
  1.10000000E+00  1.87311370E+01  2.82539436E+00  6.40121692E-01  1.61277759E-01
  1.10000000E+00  1.87311370E+01  2.82539436E+00  6.40121692E-01  1.61277759E-01
  1.10000000E+00
Contraction coefficients                   R   N=          26
  1.83477216E-03  1.39946270E-02  6.85865518E-02  2.32240873E-01  4.69069948E-01
  3.60455199E-01 -1.14961182E-01 -1.69117479E-01  1.14585195E+00  1.00000000E+00
  1.00000000E+00  3.34946043E-02  2.34726953E-01  8.13757326E-01  1.00000000E+00
  1.00000000E+00  3.34946043E-02  2.34726953E-01  8.13757326E-01  1.00000000E+00
  1.00000000E+00  3.34946043E-02  2.34726953E-01  8.13757326E-01  1.00000000E+00
  1.00000000E+00
P(S=P) Contraction coefficients            R   N=          26
  0.00000000E+00  0.00000000E+00  0.00000000E+00  0.00000000E+00  0.00000000E+00
  0.00000000E+00  6.75797439E-02  3.23907296E-01  7.40895140E-01  1.00000000E+00
  0.00000000E+00  0.00000000E+00  0.00000000E+00  0.00000000E+00  0.00000000E+00
  0.00000000E+00  0.00000000E+00  0.00000000E+00  0.00000000E+00  0.00000000E+00
  0.00000000E+00  0.00000000E+00  0.00000000E+00  0.00000000E+00  0.00000000E+00
  0.00000000E+00
Coordinates of each shell                  R   N=          39
 -4.59688743E-22 -5.50736652E-17  2.25319098E-01 -4.59688743E-22 -5.50736652E-17
  2.25319098E-01 -4.59688743E-22 -5.50736652E-17  2.25319098E-01 -4.59688743E-22
 -5.50736652E-17  2.25319098E-01  5.39727303E-16  1.77101959E+00 -5.25744561E-01
  5.39727303E-16  1.77101959E+00 -5.25744561E-01  5.39727303E-16  1.77101959E+00
 -5.25744561E-01 -1.53374795E+00 -8.85509793E-01 -5.25744561E-01 -1.53374795E+00
 -8.85509793E-01 -5.25744561E-01 -1.53374795E+00 -8.85509793E-01 -5.25744561E-01
  1.53374795E+00 -8.85509793E-01 -5.25744561E-01  1.53374795E+00 -8.85509793E-01
 -5.25744561E-01  1.53374795E+00 -8.85509793E-01 -5.25744561E-01
Constraint Structure                       R   N=          12
 -2.59608262E-22 -5.50736652E-17  2.25319098E-01  3.59818220E-16  1.77101959E+00
 -5.25744561E-01 -1.53374795E+00 -8.85509793E-01 -5.25744561E-01  1.53374795E+00
 -8.85509793E-01 -5.25744561E-01
Num ILSW                                   I              100
ILSW                                       I   N=         100
           0           1           0           0           2           0
           0           0           0           0         402  1342177280
           5           0           0           0           2           0
           0           0           1           0           1           0
           1           0           0           0           0           0
           0           0      100000           0          -1           0
           0           0           0           0           0           0
           0           0           0           1           0           0
           0           0           1           0           0           0
           0           0           4          40           0           0
           0           0           5           0           0           0
           0           0           0           0           0           0
           0           0           0           0           0           0
           0           0           0           0           0           0
           0           0           0           0           0           0
           0           0           0           0           0           0
           0           0           0           0
Num RLSW                                   I               40
RLSW                                       R   N=          40
  8.00000000E-01  7.20000000E-01  1.00000000E+00  8.10000000E-01  2.00000000E-01
  0.00000000E+00  0.00000000E+00  1.00000000E+00  0.00000000E+00  0.00000000E+00
  0.00000000E+00  0.00000000E+00  1.00000000E+00  0.00000000E+00  0.00000000E+00
  0.00000000E+00  0.00000000E+00  1.00000000E+00  0.00000000E+00  0.00000000E+00
  0.00000000E+00  0.00000000E+00  1.00000000E+00  0.00000000E+00  0.00000000E+00
  0.00000000E+00  0.00000000E+00  1.00000000E+00  0.00000000E+00  0.00000000E+00
  0.00000000E+00  0.00000000E+00  1.00000000E+00  0.00000000E+00  0.00000000E+00
  0.00000000E+00  0.00000000E+00  0.00000000E+00  1.00000000E+00  1.00000000E+00
MxBond                                     I                3
NBond                                      I   N=           4
           3           1           1           1
IBond                                      I   N=          12
           2           3           4           1           0           0
           1           0           0           1           0           0
RBond                                      R   N=          12
  1.00000000E+00  1.00000000E+00  1.00000000E+00  1.00000000E+00  0.00000000E+00
  0.00000000E+00  1.00000000E+00  0.00000000E+00  0.00000000E+00  1.00000000E+00
  0.00000000E+00  0.00000000E+00
Virial Ratio                               R      2.009134279673303E+00
SCF Energy                                 R     -5.655776873037863E+01
Total Energy                               R     -5.655776873037863E+01
RMS Force                                  R      3.229305829119036E-06
External E-field                           R   N=          35
  0.00000000E+00  0.00000000E+00  0.00000000E+00  0.00000000E+00  0.00000000E+00
  0.00000000E+00  0.00000000E+00  0.00000000E+00  0.00000000E+00  0.00000000E+00
  0.00000000E+00  0.00000000E+00  0.00000000E+00  0.00000000E+00  0.00000000E+00
  0.00000000E+00  0.00000000E+00  0.00000000E+00  0.00000000E+00  0.00000000E+00
  0.00000000E+00  0.00000000E+00  0.00000000E+00  0.00000000E+00  0.00000000E+00
  0.00000000E+00  0.00000000E+00  0.00000000E+00  0.00000000E+00  0.00000000E+00
  0.00000000E+00  0.00000000E+00  0.00000000E+00  0.00000000E+00  0.00000000E+00
IOpCl                                      I                0
IROHF                                      I                0
Alpha Orbital Energies                     R   N=          30
 -1.43056817E+01 -8.44658720E-01 -4.50296965E-01 -4.50296965E-01 -2.53176295E-01
  7.98515261E-02  1.69226264E-01  1.69226264E-01  6.78512284E-01  6.78512284E-01
  7.14368776E-01  8.75552787E-01  8.75552787E-01  8.85530082E-01  1.13372192E+00
  1.41878456E+00  1.41878456E+00  1.83050398E+00  2.09377243E+00  2.24221078E+00
  2.24221078E+00  2.34639277E+00  2.34639277E+00  2.79256418E+00  2.95068186E+00
  2.95068186E+00  3.19852008E+00  3.42895593E+00  3.42895593E+00  3.90460846E+00
Alpha MO coefficients                      R   N=         900
  9.92740094E-01  3.46023065E-02  0.00000000E+00  1.04615684E-15 -1.45824714E-03
  3.85452420E-03  0.00000000E+00  8.95767835E-16  2.76016301E-04 -7.94616653E-03
 -7.94616653E-03 -8.09539106E-03  0.00000000E+00  0.00000000E+00 -5.05238212E-17
  1.09361273E-04 -4.15249467E-04  0.00000000E+00  2.39304120E-04 -6.68752802E-05
  1.09361273E-04 -4.15249467E-04 -2.07243448E-04 -1.19652060E-04 -6.68752802E-05
  1.09361273E-04 -4.15249467E-04  2.07243448E-04 -1.19652060E-04 -6.68752802E-05
 -2.00266189E-01  4.15307341E-01  0.00000000E+00  5.97520080E-15 -1.08023789E-01
  4.12326224E-01  0.00000000E+00  4.06272238E-15 -4.82308695E-02 -7.84983266E-03
 -7.84983266E-03 -1.07010738E-02  0.00000000E+00  0.00000000E+00 -2.01488132E-15
  1.47032423E-01  2.02069754E-02  0.00000000E+00 -1.83380559E-02  5.21789959E-03
  1.47032423E-01  2.02069754E-02  1.58812223E-02  9.16902797E-03  5.21789959E-03
  1.47032423E-01  2.02069754E-02 -1.58812223E-02  9.16902797E-03  5.21789959E-03
 -3.57699981E-15 -1.38812573E-14  0.00000000E+00  4.78780582E-01  7.81753134E-15
  5.41164336E-14  0.00000000E+00  2.30431345E-01 -1.12670290E-14 -1.17808679E-02
  1.17808679E-02 -5.87203897E-15  0.00000000E+00  0.00000000E+00 -2.98219270E-02
  2.82416660E-01  2.09776276E-01  0.00000000E+00 -7.08056406E-03  6.87294981E-03
 -1.41208330E-01 -1.04888138E-01 -8.74090291E-03  8.05912388E-03 -3.43647490E-03
 -1.41208330E-01 -1.04888138E-01  8.74090291E-03  8.05912388E-03 -3.43647490E-03
  0.00000000E+00  0.00000000E+00  4.78780582E-01  0.00000000E+00  0.00000000E+00
  0.00000000E+00  2.30431345E-01  0.00000000E+00  0.00000000E+00  0.00000000E+00
  0.00000000E+00  0.00000000E+00 -1.36033745E-02 -2.98219270E-02  0.00000000E+00
  0.00000000E+00  0.00000000E+00  1.31056865E-02  0.00000000E+00  0.00000000E+00
 -2.44580002E-01 -1.81671584E-01 -2.03400141E-03 -8.74090291E-03 -5.95214913E-03
  2.44580002E-01  1.81671584E-01 -2.03400141E-03  8.74090291E-03  5.95214913E-03
 -7.65298322E-02  1.61905259E-01  0.00000000E+00 -6.21094701E-15  5.53131157E-01
  3.52510978E-01  0.00000000E+00 -1.47677010E-14  4.52613362E-01  2.75183666E-03
  2.75183666E-03 -3.76089477E-02  0.00000000E+00  0.00000000E+00  2.85687272E-15
 -6.57974977E-02 -6.99333916E-02  0.00000000E+00  4.21735200E-03  1.56342568E-02
 -6.57974977E-02 -6.99333916E-02 -3.65233397E-03 -2.10867600E-03  1.56342568E-02
 -6.57974977E-02 -6.99333916E-02  3.65233397E-03 -2.10867600E-03  1.56342568E-02
 -1.27786735E-01  1.67397281E-01  0.00000000E+00 -9.15327926E-14 -1.96067393E-01
  1.81054906E+00  0.00000000E+00 -2.86812241E-13 -4.73758595E-01 -4.05593547E-02
 -4.05593547E-02 -3.14010026E-02  0.00000000E+00  0.00000000E+00  4.74273398E-15
 -5.31507257E-02 -9.17696824E-01  0.00000000E+00 -8.15027675E-03  2.64816806E-03
 -5.31507257E-02 -9.17696824E-01  7.05834671E-03  4.07513838E-03  2.64816806E-03
 -5.31507257E-02 -9.17696824E-01 -7.05834671E-03  4.07513838E-03  2.64816806E-03
  2.72872003E-14 -1.03313191E-13  0.00000000E+00 -4.15973016E-01  5.71920983E-14
 -2.71116463E-13  0.00000000E+00 -1.00230198E+00  8.15042478E-14 -6.22931566E-03
  6.22931566E-03 -1.72084569E-14  0.00000000E+00  0.00000000E+00  1.44858721E-02
  1.03130342E-01  1.63190753E+00  0.00000000E+00  1.35329489E-04 -5.38577440E-03
 -5.15651712E-02 -8.15953766E-01  3.54646653E-03 -6.00733072E-03  2.69288720E-03
 -5.15651712E-02 -8.15953766E-01 -3.54646653E-03 -6.00733072E-03  2.69288720E-03
  0.00000000E+00  0.00000000E+00  4.15973016E-01  0.00000000E+00  0.00000000E+00
  0.00000000E+00  1.00230198E+00  0.00000000E+00  0.00000000E+00  0.00000000E+00
  0.00000000E+00  0.00000000E+00  7.19299415E-03 -1.44858721E-02  0.00000000E+00
  0.00000000E+00  0.00000000E+00  8.05488412E-03  0.00000000E+00  0.00000000E+00
  8.93134963E-02  1.41327338E+00  1.91222391E-03 -3.54646653E-03 -4.66421745E-03
 -8.93134963E-02 -1.41327338E+00  1.91222391E-03  3.54646653E-03  4.66421745E-03
  3.02373144E-15 -2.39996824E-14  0.00000000E+00 -3.46360669E-01 -8.81895468E-15
  2.79446605E-14  0.00000000E+00  1.08771344E+00  1.65722470E-14  1.18005068E-01
 -1.18005068E-01 -4.93008412E-15  0.00000000E+00  0.00000000E+00  8.63060985E-02
 -7.71325646E-01  1.50557749E-01  0.00000000E+00  8.32195553E-03  1.59645417E-02
  3.85662823E-01 -7.52788744E-02 -1.98302135E-02  4.26688928E-02 -7.98227086E-03
  3.85662823E-01 -7.52788744E-02  1.98302135E-02  4.26688928E-02 -7.98227086E-03
  0.00000000E+00  0.00000000E+00 -3.46360669E-01  0.00000000E+00  0.00000000E+00
  0.00000000E+00  1.08771344E+00  0.00000000E+00  0.00000000E+00  0.00000000E+00
  0.00000000E+00  0.00000000E+00  1.36260515E-01  8.63060985E-02  0.00000000E+00
  0.00000000E+00  0.00000000E+00  5.41178719E-02  0.00000000E+00  0.00000000E+00
  6.67987604E-01 -1.30386835E-01  1.97709346E-02 -1.98302135E-02 -1.38256987E-02
 -6.67987604E-01  1.30386835E-01  1.97709346E-02  1.98302135E-02  1.38256987E-02
  1.15183983E-02 -1.28002784E-01  0.00000000E+00 -1.00589567E-15 -9.66905493E-01
 -1.67421867E-01  0.00000000E+00 -1.17458127E-14  1.13533313E+00 -8.15512810E-02
 -8.15512810E-02 -4.33703312E-02  0.00000000E+00  0.00000000E+00 -4.07660017E-16
  3.44966717E-03  2.05362447E-01  0.00000000E+00 -5.28006722E-02  8.69519986E-03
  3.44966717E-03  2.05362447E-01  4.57267234E-02  2.64003361E-02  8.69519986E-03
  3.44966717E-03  2.05362447E-01 -4.57267234E-02  2.64003361E-02  8.69519986E-03
  6.68250177E-14 -9.44293255E-13  0.00000000E+00  8.87460841E-01  1.08437564E-13
  1.67971193E-12  0.00000000E+00 -1.54924673E+00 -2.07750483E-14  1.46046637E-01
 -1.46046637E-01 -2.71435652E-13  0.00000000E+00  0.00000000E+00  1.28697424E-01
 -4.61882477E-01  1.58483649E+00  0.00000000E+00 -1.47919670E-01  7.69728616E-02
  2.30941238E-01 -7.92418246E-01 -7.97944688E-02 -9.71159568E-03 -3.84864308E-02
  2.30941238E-01 -7.92418246E-01  7.97944688E-02 -9.71159568E-03 -3.84864308E-02
  0.00000000E+00  0.00000000E+00 -8.87460841E-01  0.00000000E+00  0.00000000E+00
  0.00000000E+00  1.54924673E+00  0.00000000E+00  0.00000000E+00  0.00000000E+00
  0.00000000E+00  0.00000000E+00 -1.68640130E-01 -1.28697424E-01  0.00000000E+00
  0.00000000E+00  0.00000000E+00 -3.63577624E-02  0.00000000E+00  0.00000000E+00
 -4.00001959E-01  1.37250866E+00  1.01850312E-01  7.97944688E-02  6.66604535E-02
  4.00001959E-01 -1.37250866E+00  1.01850312E-01 -7.97944688E-02 -6.66604535E-02
  6.78703555E-02 -6.77826784E-01  0.00000000E+00 -9.94248629E-13  7.97250498E-02
  1.06779635E+00  0.00000000E+00  1.76637871E-12  5.47245791E-02  5.89725619E-02
  5.89725619E-02 -2.14881071E-01  0.00000000E+00  0.00000000E+00 -1.48115895E-13
  6.46285724E-01 -5.86250040E-01  0.00000000E+00  1.11955521E-01  1.07676330E-02
  6.46285724E-01 -5.86250040E-01 -9.69563255E-02 -5.59777606E-02  1.07676330E-02
  6.46285724E-01 -5.86250040E-01  9.69563255E-02 -5.59777606E-02  1.07676330E-02
 -7.92145536E-02 -1.49878897E+00  0.00000000E+00 -8.17809362E-14  1.59669373E-01
  3.94921750E+00  0.00000000E+00  2.20712337E-13 -7.47319834E-01 -3.77828415E-01
 -3.77828415E-01 -4.25144016E-02  0.00000000E+00  0.00000000E+00 -1.25802146E-14
 -3.02881766E-01 -7.79727299E-01  0.00000000E+00 -1.87872130E-02 -8.70058751E-02
 -3.02881766E-01 -7.79727299E-01  1.62702037E-02  9.39360650E-03 -8.70058751E-02
 -3.02881766E-01 -7.79727299E-01 -1.62702037E-02  9.39360650E-03 -8.70058751E-02
  2.66713734E-17  5.36005702E-14  0.00000000E+00  1.93287909E-02 -6.97629888E-15
 -1.22880872E-13  0.00000000E+00  1.55456134E-01  1.97762813E-14 -3.57726155E-01
  3.57726155E-01 -1.03589012E-14  0.00000000E+00  0.00000000E+00  5.17862679E-01
 -7.43354561E-02 -2.76873546E-02  0.00000000E+00  1.02680380E-01  2.69809658E-01
  3.71677280E-02  1.38436773E-02  1.63554772E-01 -1.80604795E-01 -1.34904829E-01
  3.71677280E-02  1.38436773E-02 -1.63554772E-01 -1.80604795E-01 -1.34904829E-01
  0.00000000E+00  0.00000000E+00  1.93287909E-02  0.00000000E+00  0.00000000E+00
  0.00000000E+00  1.55456134E-01  0.00000000E+00  0.00000000E+00  0.00000000E+00
  0.00000000E+00  0.00000000E+00 -4.13066584E-01  5.17862679E-01  0.00000000E+00
  0.00000000E+00  0.00000000E+00 -2.75033187E-01  0.00000000E+00  0.00000000E+00
  6.43763933E-02  2.39779525E-02  8.25198826E-03  1.63554772E-01 -2.33662018E-01
 -6.43763933E-02 -2.39779525E-02  8.25198826E-03 -1.63554772E-01  2.33662018E-01
 -6.52881412E-02 -6.50577217E-01  0.00000000E+00 -1.00030661E-14  1.94630283E-02
  1.92976525E+00  0.00000000E+00  3.53467255E-14 -6.82233182E-01  2.56824408E-01
  2.56824408E-01 -8.77897280E-01  0.00000000E+00  0.00000000E+00 -1.98764616E-14
 -4.71840433E-01 -2.80163261E-01  0.00000000E+00  6.52993565E-03  2.27978452E-01
 -4.71840433E-01 -2.80163261E-01 -5.65509016E-03 -3.26496782E-03  2.27978452E-01
 -4.71840433E-01 -2.80163261E-01  5.65509016E-03 -3.26496782E-03  2.27978452E-01
  0.00000000E+00  0.00000000E+00 -1.51197414E-15  0.00000000E+00  0.00000000E+00
  0.00000000E+00  1.35759459E-14  0.00000000E+00  0.00000000E+00  0.00000000E+00
  0.00000000E+00  0.00000000E+00 -4.41096812E-15 -8.71958755E-15  0.00000000E+00
  0.00000000E+00  0.00000000E+00  5.87702755E-01  0.00000000E+00  0.00000000E+00
  9.12074236E-15  3.08780779E-16 -2.93851378E-01  5.08965516E-01  4.74056558E-15
 -9.12074236E-15 -3.08780779E-16 -2.93851378E-01 -5.08965516E-01 -4.74056558E-15
  0.00000000E+00  0.00000000E+00 -1.58846174E-01  0.00000000E+00  0.00000000E+00
  0.00000000E+00  6.91807550E-01  0.00000000E+00  0.00000000E+00  0.00000000E+00
  0.00000000E+00  0.00000000E+00 -4.49064557E-01 -2.26252761E-01  0.00000000E+00
  0.00000000E+00  0.00000000E+00 -3.45679650E-01  0.00000000E+00  0.00000000E+00
  4.53055780E-01  4.54549978E-03 -4.40208019E-01 -5.45759794E-02  3.07214812E-01
 -4.53055780E-01 -4.54549978E-03 -4.40208019E-01  5.45759794E-02 -3.07214812E-01
  2.65412692E-16  3.09825950E-14  0.00000000E+00 -1.58846174E-01 -4.13200290E-15
 -7.04818148E-14  0.00000000E+00  6.91807550E-01  1.66091099E-14 -3.88901315E-01
  3.88901315E-01  1.44094806E-14  0.00000000E+00  0.00000000E+00 -2.26252761E-01
 -5.23143754E-01 -5.24869104E-03  0.00000000E+00 -4.71717476E-01 -3.54741109E-01
  2.61571877E-01  2.62434552E-03 -5.45759794E-02 -3.77189107E-01  1.77370555E-01
  2.61571877E-01  2.62434552E-03  5.45759794E-02 -3.77189107E-01  1.77370555E-01
  5.03633593E-15 -5.03633593E-14  0.00000000E+00  1.75714719E-01  2.78271330E-15
  4.36595204E-14  0.00000000E+00  6.15446406E-02 -1.62075214E-14  3.48610906E-01
 -3.48610906E-01  9.37271094E-15  0.00000000E+00  0.00000000E+00  5.89640784E-01
  3.41998009E-01 -2.73178756E-01  0.00000000E+00  3.87637886E-02 -5.88132903E-01
 -1.70999005E-01  1.36589378E-01  1.49163594E-01 -2.19595134E-01  2.94066451E-01
 -1.70999005E-01  1.36589378E-01 -1.49163594E-01 -2.19595134E-01  2.94066451E-01
  0.00000000E+00  0.00000000E+00  1.75714719E-01  0.00000000E+00  0.00000000E+00
  0.00000000E+00  6.15446406E-02  0.00000000E+00  0.00000000E+00  0.00000000E+00
  0.00000000E+00  0.00000000E+00  4.02541201E-01  5.89640784E-01  0.00000000E+00
  0.00000000E+00  0.00000000E+00 -3.05714775E-01  0.00000000E+00  0.00000000E+00
 -2.96178964E-01  2.36579743E-01 -4.73558524E-02  1.49163594E-01  5.09338034E-01
  2.96178964E-01 -2.36579743E-01 -4.73558524E-02 -1.49163594E-01 -5.09338034E-01
  2.58517802E-03 -1.55301116E-01  0.00000000E+00  4.74284240E-16 -9.99538344E-02
  4.09478665E-01  0.00000000E+00  6.81052437E-15 -5.08719993E-01 -2.93755180E-01
 -2.93755180E-01  7.66749837E-01  0.00000000E+00  0.00000000E+00 -2.43858753E-15
 -7.34063907E-02 -1.25239271E-01  0.00000000E+00  3.07775215E-01  5.62688033E-01
 -7.34063907E-02 -1.25239271E-01 -2.66541155E-01 -1.53887607E-01  5.62688033E-01
 -7.34063907E-02 -1.25239271E-01  2.66541155E-01 -1.53887607E-01  5.62688033E-01
  0.00000000E+00  0.00000000E+00  3.64241451E-02  0.00000000E+00  0.00000000E+00
  0.00000000E+00 -3.73081703E-01  0.00000000E+00  0.00000000E+00  0.00000000E+00
  0.00000000E+00  0.00000000E+00 -7.58848689E-01  5.66457168E-01  0.00000000E+00
  0.00000000E+00  0.00000000E+00  7.92833725E-01  0.00000000E+00  0.00000000E+00
 -7.22029201E-03 -1.34574528E-01  1.22626551E-01 -3.86944292E-01  3.35079908E-01
  7.22029201E-03  1.34574528E-01  1.22626551E-01  3.86944292E-01 -3.35079908E-01
  1.56407005E-14 -6.66966482E-14  0.00000000E+00 -3.64241451E-02  1.45168166E-14
 -7.93809463E-14  0.00000000E+00  3.73081703E-01  1.17492821E-14  6.57182242E-01
 -6.57182242E-01  4.83484780E-14  0.00000000E+00  0.00000000E+00 -5.66457168E-01
 -8.33727507E-03 -1.55393280E-01  0.00000000E+00  1.00775840E-01  3.86916950E-01
  4.16863754E-03  7.76966402E-02  3.86944292E-01 -5.69431333E-01 -1.93458475E-01
  4.16863754E-03  7.76966402E-02 -3.86944292E-01 -5.69431333E-01 -1.93458475E-01
 -2.04007784E-01  7.25613794E-01  0.00000000E+00  7.40269391E-14 -4.11900435E-01
  2.02297821E+00  0.00000000E+00  1.16448517E-13 -4.02341388E-01 -1.12439209E-01
 -1.12439209E-01 -6.99441745E-01  0.00000000E+00  0.00000000E+00 -1.01352954E-13
 -4.16776642E-01 -4.55404336E-01  0.00000000E+00  6.65752761E-01 -2.87836933E-01
 -4.16776642E-01 -4.55404336E-01 -5.76558804E-01 -3.32876380E-01 -2.87836933E-01
 -4.16776642E-01 -4.55404336E-01  5.76558804E-01 -3.32876380E-01 -2.87836933E-01
  7.65359998E-15 -2.06779038E-14  0.00000000E+00  8.40486743E-01  4.73527467E-14
 -1.72029058E-13  0.00000000E+00  9.80535973E-01  4.74065232E-14 -8.22601380E-01
  8.22601380E-01  2.74641421E-14  0.00000000E+00  0.00000000E+00 -8.89833436E-01
 -1.04141221E+00 -6.47330603E-01  0.00000000E+00  1.10899007E+00 -4.64239092E-01
  5.20706103E-01  3.23665302E-01  5.16734706E-01  2.13979301E-01  2.32119546E-01
  5.20706103E-01  3.23665302E-01 -5.16734706E-01  2.13979301E-01  2.32119546E-01
  0.00000000E+00  0.00000000E+00  8.40486743E-01  0.00000000E+00  0.00000000E+00
  0.00000000E+00  9.80535973E-01  0.00000000E+00  0.00000000E+00  0.00000000E+00
  0.00000000E+00  0.00000000E+00 -9.49858257E-01 -8.89833436E-01  0.00000000E+00
  0.00000000E+00  0.00000000E+00 -8.43576204E-02  0.00000000E+00  0.00000000E+00
  9.01889426E-01  5.60604747E-01  8.10653144E-01  5.16734706E-01  4.02042847E-01
 -9.01889426E-01 -5.60604747E-01  8.10653144E-01 -5.16734706E-01 -4.02042847E-01
 -4.30943614E-01  8.96951863E-01  0.00000000E+00 -2.68258723E-14  3.90101827E-01
  2.56985132E+00  0.00000000E+00 -3.55271368E-15 -1.83477772E-01 -1.76462282E+00
 -1.76462282E+00 -1.34712288E+00  0.00000000E+00  0.00000000E+00  2.03760619E-14
  4.24355571E-01 -3.81821755E-01  0.00000000E+00 -4.36266721E-01  2.52820773E-01
  4.24355571E-01 -3.81821755E-01  3.77818063E-01  2.18133360E-01  2.52820773E-01
  4.24355571E-01 -3.81821755E-01 -3.77818063E-01  2.18133360E-01  2.52820773E-01
Total SCF Density                          R   N=         465
  2.06299251E+00 -1.22423007E-01  3.99781640E-01  1.94351830E-23 -3.91783656E-23
  4.58461691E-01  1.37773798E-23 -2.77730986E-23  1.00437426E-16  4.58461691E-01
 -4.42903653E-02  8.92826249E-02 -8.61484153E-22  1.75232254E-22  6.35250684E-01
 -2.11452133E-01  4.56897729E-01 -1.32028393E-22 -9.35934202E-23  3.00876287E-01
  5.88583524E-01  2.16820954E-23 -4.67418217E-23  2.20652107E-01  4.73247688E-17
 -5.04749728E-22 -1.22573947E-22  1.06197210E-01  1.53701906E-23 -3.31347459E-23
  4.73247688E-17  2.20652107E-01  2.04466444E-23 -8.68912738E-23  2.10698013E-17
  1.06197210E-01 -4.94107996E-02  1.06518801E-01 -5.04749727E-22  2.04466430E-23
  5.11128463E-01  2.79330782E-01 -3.16813041E-22 -4.25341344E-23  4.14370298E-01
 -1.30540393E-02 -6.17902398E-03 -8.08484926E-18 -1.12809016E-02  4.76336546E-03
 -4.59453583E-03 -3.87642163E-18 -5.42936247E-03  3.24385805E-03  5.42245778E-04
 -1.30540393E-02 -6.17902398E-03  3.52113643E-18  1.12809016E-02  4.76336546E-03
 -4.59453583E-03  1.55087519E-18  5.42936247E-03  3.24385805E-03 -1.29096166E-05
  5.42245778E-04 -6.03069911E-03 -2.16268803E-02  8.00995236E-23 -2.80080157E-23
 -3.92698103E-02 -3.54022084E-02  4.47455554E-23 -9.08862872E-24 -3.30168493E-02
  8.96705668E-05  8.96705668E-05  3.18896257E-03 -3.19083585E-18 -1.48474274E-18
 -1.30260631E-02  3.89894515E-18  1.20713096E-18 -1.11045000E-18 -6.26928777E-03
  1.87426405E-18  8.37911125E-19  1.41513828E-19  1.25865750E-19  2.26595625E-20
  3.70103596E-04  2.22149278E-23  2.00271323E-23 -2.85563192E-02 -5.94009335E-18
  4.92033283E-23  2.46815307E-23 -1.37438135E-02 -2.93385913E-18  2.94376806E-23
  4.99119976E-19 -2.37025469E-19 -5.66328637E-24  8.11357684E-04  1.77869466E-03
 -1.00921973E-23  1.96580037E-24 -5.94009335E-18 -2.85563192E-02 -4.64470261E-24
  8.40170043E-24 -2.93385913E-18 -1.37438135E-02  3.72851282E-24  7.02656366E-04
 -7.02656366E-04  1.44417589E-24 -2.49600915E-19  3.37298825E-19  1.77869466E-03
 -4.86031682E-02  1.00828935E-01  6.69813940E-17  2.70431225E-01 -1.04555610E-01
  7.48628096E-02  3.10063916E-17  1.30155301E-01 -7.37445962E-02 -9.32645248E-03
  3.98200096E-03  1.80056904E-03  1.46027778E-18 -3.90885315E-18 -1.68444180E-02
  2.11414051E-01  1.78596396E-03 -5.88969457E-03  4.84353000E-17  2.00873614E-01
 -8.17291326E-02 -3.26440460E-02  2.29339012E-17  9.66780586E-02 -6.52550042E-02
 -5.63822719E-03  4.24715917E-03  4.83449308E-03  1.53139125E-18 -3.09445294E-18
 -1.25118656E-02  1.33633585E-01  9.86105186E-02  1.68854873E-18 -3.50474226E-18
  1.25494964E-02 -1.97304443E-18  2.02681397E-18 -2.86886035E-18  6.03992195E-03
 -9.17897645E-19  1.41792379E-18 -4.09969096E-20  5.27363480E-20  1.70998737E-20
 -3.56563124E-04 -7.81673655E-04  1.23457355E-19 -2.50522188E-18 -1.01302957E-18
  3.43518039E-04  7.17461226E-03 -1.38496746E-02 -2.04532641E-18 -6.78007316E-03
  8.62669221E-03 -1.21473521E-02 -9.54039231E-19 -3.26316780E-03  5.58671261E-03
  4.74139547E-04  1.40478788E-04  7.13789186E-05  2.23903968E-20  1.13024143E-19
  4.22312129E-04 -9.94684616E-03 -4.30184820E-03  1.74535320E-19  8.08524015E-04
 -4.61569137E-03  9.39197273E-03  1.59616423E-18  6.58126981E-03  1.61684696E-02
  1.53249324E-02  7.93909727E-19  3.16748614E-03  1.36491825E-02 -1.56749259E-04
  1.67127996E-04 -1.28656739E-03  4.99619580E-20 -1.02557662E-19 -4.09929215E-04
  3.35906731E-03  9.07781899E-04 -3.91933194E-20 -1.56862671E-04  6.37796745E-04
 -4.86031682E-02  1.00828935E-01 -2.34200311E-01 -1.35215613E-01 -1.04555610E-01
  7.48628096E-02 -1.12717797E-01 -6.50776507E-02 -7.37445962E-02  6.54887597E-04
 -5.99933912E-03  1.80056904E-03  6.65422672E-03  1.45876939E-02  8.42220901E-03
 -2.78634576E-02 -4.40993604E-02 -6.41077766E-03 -3.94783841E-03 -2.46403927E-03
  2.11414051E-01  1.78596396E-03 -5.88969457E-03 -1.73961653E-01 -1.00436807E-01
 -8.17291326E-02 -3.26440460E-02 -8.37256548E-02 -4.83390293E-02 -6.52550042E-02
  1.77581258E-03 -3.16688060E-03  4.83449308E-03  4.94269318E-03  1.08355934E-02
  6.25593278E-03 -4.40993604E-02 -3.34077387E-02 -4.76186165E-03  1.54154867E-04
 -3.41756354E-03  1.33633585E-01  9.86105186E-02 -6.21339648E-03  1.19941701E-02
 -1.94768076E-03 -8.36994916E-03 -7.47093460E-03  1.05199155E-02 -9.37395362E-04
 -4.02835603E-03 -4.83823504E-03 -6.01867011E-05 -4.72088391E-04 -6.18159568E-05
  5.53385659E-05  1.21315683E-04  5.21341137E-04  2.13539523E-04 -2.51443286E-03
 -5.33139698E-05 -4.89585985E-04 -6.85936624E-05  8.61422146E-03  3.72550983E-03
  6.92272521E-04 -3.58730613E-03  6.92483731E-03 -8.36994916E-03  7.71710404E-03
 -4.31334610E-03  6.07367607E-03 -4.02835603E-03  3.71414951E-03 -2.79335631E-03
 -3.43541532E-04  3.62323638E-05 -3.56894593E-05  2.37811552E-04  5.21341137E-04